Created by /home/xiruan/ATLAS-toolkit/scripts/createLammpsInput.pl on Thu Aug 28 18:17:29 2025

       13632 atoms
       12928 bonds
       23424 angles
       24192 dihedrals

          11 atom types
          12 bond types
          28 angle types
          15 dihedral types

		   0.000000  63.989320 xlo xhi
		   0.000000  63.989320 ylo yhi
		   0.000000  63.989320 zlo zhi

Masses

    1 1.2010E+01 # c3     
    2 1.6000E+01 # os     
    3 1.0080E+00 # h1     
    4 3.2060E+01 # ss     
    5 1.9000E+01 # f      
    6 1.0080E+00 # h2     
    7 3.2060E+01 # sy     
    8 1.4010E+01 # ne     
    9 3.2060E+01 # s6     
   10 1.6000E+01 # o      
   11 2.2990E+01 # Na+    

Pair Coeffs

    1    0.10780    3.39771 # c3 c3 
    2    0.07260    3.15610 # os os 
    3    0.02080    2.42200 # h1 h1 
    4    0.28240    3.53241 # ss ss 
    5    0.08320    3.03422 # f f 
    6    0.02080    2.24382 # h2 h2 
    7    0.28240    3.53241 # sy sy 
    8    0.09410    3.38417 # ne ne 
    9    0.28240    3.53241 # s6 s6 
   10    0.14630    3.04812 # o o 
   11    0.16844    2.18448 # Na+ Na+ 

Bond Coeffs

    1    284.8    1.432 # c3 os 
    2    375.9    1.097 # c3 h1 
    3    232.5    1.538 # c3 c3 
    4      183    1.839 # c3 ss 
    5    352.6     1.35 # c3 f 
    6    377.3    1.096 # c3 h2 
    7    199.4    1.809 # c3 sy 
    8      326    1.672 # ne sy 
    9    653.2    1.466 # o sy 
   10    412.2    1.598 # ne s6 
   11    200.1    1.808 # c3 s6 
   12      683    1.453 # o s6 

Angle Coeffs

    1     62.4   109.78 # h1 c3 os 
    2     38.8   108.46 # h1 c3 h1 
    3     66.3   112.48 # c3 os c3 
    4     85.3   107.97 # c3 c3 os 
    5     46.9   109.56 # c3 c3 h1 
    6     81.9   111.75 # f c3 ss 
    7     63.2   110.27 # c3 c3 ss 
    8     42.5   108.76 # h1 c3 ss 
    9     71.1    99.24 # c3 ss c3 
   10     87.9   109.24 # c3 c3 f 
   11     46.7   110.22 # c3 c3 h2 
   12    121.6   107.36 # f c3 f 
   13     66.6   108.79 # f c3 h2 
   14    114.4   110.58 # f c3 os 
   15     62.4   109.58 # h2 c3 os 
   16     64.1   109.92 # c3 c3 sy 
   17     83.9   109.68 # f c3 sy 
   18     92.4   102.19 # c3 sy ne 
   19     67.7   119.63 # s6 ne sy 
   20     91.3   108.19 # c3 s6 ne 
   21     83.9   109.68 # f c3 s6 
   22    124.1    119.1 # ne s6 o 
   23     93.7   108.61 # c3 s6 o 
   24    128.2   120.05 # o s6 o 
   25     93.8   107.85 # c3 sy o 
   26    123.2   109.65 # ne sy o 
   27    126.4   121.41 # o sy o 
   28     64.9   111.51 # c3 c3 c3 

Dihedral Coeffs

    1        1 0.155556        3        0 # X c3 c3 X 
    2        1 0.383333        3        0 # X c3 os X 
    3        1 0.144444        3        0 # X c3 s6 X 
    4        1 0.333333        3        0 # X c3 ss X 
    5        1 0.144444        3        0 # X c3 sy X 
    6        2      0.5        3      180      6.8        1      180 # X ne sy X 
    7        5     0.24        3        0     0.16        2        0     0.91        3        0        1        2        0        0        1        0 # c3 os c3 c3 
    8        1    0.337        3        0 # c3 os c3 h1 
    9        1    0.167        3        0 # c3 ss c3 c3 
   10        1     0.22        3        0 # c3 ss c3 h1 
   11        2        1        3        0     0.64        1      180 # f c3 c3 f 
   12        2        0        3        0     0.25        1        0 # h1 c3 c3 os 
   13        3        0        3        0        0        2      180     0.17        1      180 # os c3 c3 os 
   14        1  6.66667        2      180 # sy ne s6 c3 
   15        1  6.66667        2      180 # sy ne s6 o 

Atoms

       1        1        1  0.11882500    3.62230    1.82473   -0.16992    0    0    0
       2        1        2 -0.42547500    4.57700    0.91135   -0.69672    0    0    0
       3        1        3  0.03382500    2.93366    2.10288   -0.97145    0    0    0
       4        1        3  0.03382500    4.12082    2.72972    0.19143    0    0    0
       5        1        3  0.03382500    3.04971    1.36072    0.63809    0    0    0
       6        1        1  0.12552500    5.49179    0.47591    0.30998    0    0    0
       7        1        1  0.12552500    6.50962   -0.47442   -0.30955    0    0    0
       8        1        3  0.03982500    4.94783   -0.03371    1.11412    0    0    0
       9        1        3  0.03982500    6.00835    1.33817    0.74823    0    0    0
      10        1        2 -0.42547500    7.41470   -0.92243    0.69931    0    0    0
      11        1        3  0.03982500    7.06040    0.03944   -1.10652    0    0    0
      12        1        3  0.03982500    5.99334   -1.33081   -0.75962    0    0    0
      13        1        1  0.11882500    8.38378   -1.81597    0.16747    0    0    0
      14        1        3  0.03382500    9.04407   -2.13143    0.97950    0    0    0
      15        1        3  0.03382500    8.98535   -1.31745   -0.59875    0    0    0
      16        1        3  0.03382500    7.89896   -2.70365   -0.25193    0    0    0
      17        2        1  0.11882500    8.27145    3.10182    0.28593    0    0    0
      18        2        2 -0.42547500    7.99459    4.47390    0.03298    0    0    0
      19        2        3  0.03382500    7.34231    2.53742    0.17558    0    0    0
      20        2        3  0.03382500    8.64019    2.97036    1.30811    0    0    0
      21        2        3  0.03382500    9.00186    2.71720   -0.43144    0    0    0
      22        2        1  0.12552500    9.17721    5.26940    0.12518    0    0    0
      23        2        1  0.12552500    8.82334    6.73090   -0.12319    0    0    0
      24        2        3  0.03982500    9.91248    4.93323   -0.61550    0    0    0
      25        2        3  0.03982500    9.62801    5.16071    1.11884    0    0    0
      26        2        2 -0.42547500   10.00739    7.52456   -0.04684    0    0    0
      27        2        3  0.03982500    8.09595    7.06913    0.62453    0    0    0
      28        2        3  0.03982500    8.36052    6.83899   -1.11143    0    0    0
      29        2        1  0.11882500    9.72649    8.89908   -0.27522    0    0    0
      30        2        3  0.03382500   10.66400    9.45761   -0.21179    0    0    0
      31        2        3  0.03382500    9.03939    9.28162    0.48573    0    0    0
      32        2        3  0.03382500    9.30179    9.04385   -1.27401    0    0    0
      33        3        1  0.11882500    1.83033   14.11467   11.74567    0    0    0
      34        3        2 -0.42547500    1.15427   14.95776   10.82080    0    0    0
      35        3        3  0.03382500    1.61795   14.47246   12.75607    0    0    0
      36        3        3  0.03382500    2.91144   14.15831   11.58017    0    0    0
      37        3        3  0.03382500    1.47613   13.08370   11.65783    0    0    0
      38        3        1  0.12552500    1.35958   14.52496    9.47528    0    0    0
      39        3        1  0.12552500    0.64234   15.47556    8.52405    0    0    0
      40        3        3  0.03982500    0.97235   13.50721    9.34682    0    0    0
      41        3        3  0.03982500    2.43136   14.50791    9.24424    0    0    0
      42        3        2 -0.42547500    0.83391   15.03461    7.17997    0    0    0
      43        3        3  0.03982500    1.03771   16.49115    8.64581    0    0    0
      44        3        3  0.03982500   -0.42767   15.50342    8.76242    0    0    0
      45        3        1  0.11882500    0.17873   15.89147    6.25428    0    0    0
      46        3        3  0.03382500    0.35175   15.50624    5.24603    0    0    0
      47        3        3  0.03382500    0.58582   16.90537    6.31587    0    0    0
      48        3        3  0.03382500   -0.90007   15.90610    6.44111    0    0    0
      49        4        1  0.11882500   11.45173   11.64337    4.65075    0    0    0
      50        4        2 -0.42547500   11.25184   10.79646    5.77592    0    0    0
      51        4        3  0.03382500   11.57359   12.66843    5.00913    0    0    0
      52        4        3  0.03382500   10.58158   11.60674    3.98774    0    0    0
      53        4        3  0.03382500   12.35442   11.35362    4.10555    0    0    0
      54        4        1  0.12552500   11.12007    9.42988    5.38224    0    0    0
      55        4        1  0.12552500   10.87804    8.56976    6.61694    0    0    0
      56        4        3  0.03982500   12.03158    9.09876    4.87059    0    0    0
      57        4        3  0.03982500   10.28311    9.31823    4.68265    0    0    0
      58        4        2 -0.42547500   10.76201    7.20178    6.22596    0    0    0
      59        4        3  0.03982500    9.96053    8.89485    7.12197    0    0    0
      60        4        3  0.03982500   11.70818    8.69053    7.32319    0    0    0
      61        4        1  0.11882500   10.53757    6.35855    7.34799    0    0    0
      62        4        3  0.03382500   10.46304    5.32690    6.99438    0    0    0
      63        4        3  0.03382500    9.60108    6.62563    7.84714    0    0    0
      64        4        3  0.03382500   11.37305    6.42568    8.05254    0    0    0
      65        5        1  0.11882500   10.04764    2.58019    3.34538    0    0    0
      66        5        2 -0.42547500   11.21369    2.94433    2.61671    0    0    0
      67        5        3  0.03382500    9.18202    2.69341    2.68818    0    0    0
      68        5        3  0.03382500    9.91800    3.23914    4.20971    0    0    0
      69        5        3  0.03382500   10.10608    1.53768    3.67067    0    0    0
      70        5        1  0.12552500   12.39257    2.78545    3.40723    0    0    0
      71        5        1  0.12552500   13.60762    3.21610    2.59416    0    0    0
      72        5        3  0.03982500   12.50031    1.73748    3.71121    0    0    0
      73        5        3  0.03982500   12.32091    3.39316    4.31715    0    0    0
      74        5        2 -0.42547500   14.78787    3.04266    3.37813    0    0    0
      75        5        3  0.03982500   13.50380    4.26732    2.29967    0    0    0
      76        5        3  0.03982500   13.67306    2.61785    1.67747    0    0    0
      77        5        1  0.11882500   15.95068    3.42999    2.65826    0    0    0
      78        5        3  0.03382500   16.82168    3.27178    3.29953    0    0    0
      79        5        3  0.03382500   15.90098    4.49005    2.39123    0    0    0
      80        5        3  0.03382500   16.06618    2.81895    1.75703    0    0    0
      81        6        1  0.11882500    3.01757    5.04049   12.49707    0    0    0
      82        6        2 -0.42547500    2.80880    6.40047   12.13638    0    0    0
      83        6        3  0.03382500    2.78176    4.41523   11.63250    0    0    0
      84        6        3  0.03382500    2.35494    4.75968   13.32180    0    0    0
      85        6        3  0.03382500    4.06123    4.87159   12.77686    0    0    0
      86        6        1  0.12552500    3.13363    7.28062   13.21328    0    0    0
      87        6        1  0.12552500    2.86487    8.71936   12.78818    0    0    0
      88        6        3  0.03982500    4.18922    7.16391   13.48597    0    0    0
      89        6        3  0.03982500    2.53007    7.03567   14.09538    0    0    0
      90        6        2 -0.42547500    3.20427    9.60080   13.85850    0    0    0
      91        6        3  0.03982500    1.80668    8.83758   12.52584    0    0    0
      92        6        3  0.03982500    3.45816    8.96150   11.89831    0    0    0
      93        6        1  0.11882500    2.97215   10.95820   13.50643    0    0    0
      94        6        3  0.03382500    3.25311   11.58726   14.35510    0    0    0
      95        6        3  0.03382500    1.91281   11.12136   13.28580    0    0    0
      96        6        3  0.03382500    3.58506   11.24201   12.64462    0    0    0
      97        7        4 -0.10539700    1.32550   -2.09093    7.60825    0    0    0
      98        7        1 -0.13809700    0.38564   -1.76889    6.06188    0    0    0
      99        7        5 -0.06639800    0.16317   -0.41778    5.89437    0    0    0
     100        7        5 -0.06639800   -0.81781   -2.44432    6.12847    0    0    0
     101        7        1  0.17619600    1.12401   -2.26674    4.82058    0    0    0
     102        7        5 -0.14149600    1.36956   -3.62429    4.95827    0    0    0
     103        7        6  0.16419600    2.08171   -1.70779    4.72886    0    0    0
     104        7        2 -0.04689900    0.26733   -2.02524    3.71914    0    0    0
     105        7        1  0.20179500    0.87084   -2.31528    2.47522    0    0    0
     106        7        5 -0.12319700    1.21346   -3.65645    2.39206    0    0    0
     107        7        5 -0.12319700    1.99333   -1.52347    2.27993    0    0    0
     108        7        1  0.04799900   -0.16376   -1.99995    1.38707    0    0    0
     109        7        5 -0.10699700   -0.50031   -0.65951    1.44759    0    0    0
     110        7        5 -0.10699700   -1.30598   -2.75112    1.60942    0    0    0
     111        7        7  1.08897300    0.44370   -2.37104   -0.29184    0    0    0
     112        7        8 -0.61098500   -0.28155   -1.40352   -1.59718    0    0    0
     113        7        9  0.97637600   -0.54865   -2.37299   -3.05784    0    0    0
     114        7        1  0.32349200   -1.92364   -3.56575   -3.06331    0    0    0
     115        7        5 -0.15109600   -2.58119   -3.51049   -4.27785    0    0    0
     116        7        5 -0.15109600   -1.43558   -4.84205   -2.86347    0    0    0
     117        7        5 -0.15109600   -2.80919   -3.24934   -2.05122    0    0    0
     118        7       10 -0.52828700   -0.71170   -1.32008   -4.16318    0    0    0
     119        7       10 -0.52828700    0.81912   -2.97567   -3.41530    0    0    0
     120        7       10 -0.51948700    0.24667   -3.84831   -0.67092    0    0    0
     121        7       10 -0.51948700    1.95857   -2.18381   -0.46195    0    0    0
     122        7        4 -0.10539700   -1.74900    0.94301    7.64671    0    0    0
     123        7        1 -0.13809700   -3.10124    0.42161    6.52210    0    0    0
     124        7        5 -0.06639800   -4.31881    0.61158    7.15055    0    0    0
     125        7        5 -0.06639800   -2.97134   -0.90650    6.16300    0    0    0
     126        7        1  0.17619600   -3.03531    1.26957    5.24906    0    0    0
     127        7        5 -0.14149600   -1.78685    1.08918    4.66801    0    0    0
     128        7        6  0.16419600   -3.16336    2.33607    5.54243    0    0    0
     129        7        2 -0.04689900   -4.06814    0.87019    4.36557    0    0    0
     130        7        1  0.20179500   -3.98766    1.56040    3.12826    0    0    0
     131        7        5 -0.12319700   -2.88155    1.12861    2.40954    0    0    0
     132        7        5 -0.12319700   -3.92005    2.93391    3.32259    0    0    0
     133        7        1  0.04799900   -5.24391    1.24846    2.31023    0    0    0
     134        7        5 -0.10699700   -6.36377    1.66393    3.00862    0    0    0
     135        7        5 -0.10699700   -5.33346   -0.11620    2.10170    0    0    0
     136        7        7  1.08897300   -5.22097    2.09484    0.68792    0    0    0
     137        7        8 -0.61098500   -6.41207    3.39253    0.46212    0    0    0
     138        7        9  0.97637600   -6.45832    3.91233   -1.23317    0    0    0
     139        7        1  0.32349200   -7.17509    2.79441   -2.47702    0    0    0
     140        7        5 -0.15109600   -7.90282    3.52670   -3.39471    0    0    0
     141        7        5 -0.15109600   -6.16543    2.11438   -3.13056    0    0    0
     142        7        5 -0.15109600   -8.01096    1.88821   -1.85380    0    0    0
     143        7       10 -0.52828700   -7.22463    5.24154   -1.17782    0    0    0
     144        7       10 -0.52828700   -5.04109    4.40211   -1.56741    0    0    0
     145        7       10 -0.51948700   -5.44552    1.11853   -0.47657    0    0    0
     146        7       10 -0.51948700   -3.86269    2.72250    0.33581    0    0    0
     147        7        4 -0.10539700   -1.70540    0.76013   11.59772    0    0    0
     148        7        1 -0.13809700   -1.01395    1.91394   12.84882    0    0    0
     149        7        5 -0.06639800   -2.06081    2.67953   13.32808    0    0    0
     150        7        5 -0.06639800   -0.08984    2.77405   12.27911    0    0    0
     151        7        1  0.17619600   -0.38306    1.14189   14.01020    0    0    0
     152        7        5 -0.14149600    0.70943    0.42589   13.56006    0    0    0
     153        7        6  0.16419600   -1.16238    0.43684   14.38585    0    0    0
     154        7        2 -0.04689900    0.03981    2.05197   15.01072    0    0    0
     155        7        1  0.20179500    0.07462    1.42069   16.28043    0    0    0
     156        7        5 -0.12319700    0.83378    0.25779   16.23601    0    0    0
     157        7        5 -0.12319700   -1.21753    1.12667   16.69444    0    0    0
     158        7        1  0.04799900    0.70959    2.37535   17.29750    0    0    0
     159        7        5 -0.10699700   -0.03437    3.53975   17.35853    0    0    0
     160        7        5 -0.10699700    1.99749    2.69042   16.90000    0    0    0
     161        7        7  1.08897300    0.77015    1.62929   18.96890    0    0    0
     162        7        8 -0.61098500    0.05075    2.54534   20.30633    0    0    0
     163        7        9  0.97637600    1.28298    3.53265   21.10960    0    0    0
     164        7        1  0.32349200    2.36088    4.60825   20.11724    0    0    0
     165        7        5 -0.15109600    2.83304    5.63916   20.90590    0    0    0
     166        7        5 -0.15109600    3.42835    3.87955   19.62955    0    0    0
     167        7        5 -0.15109600    1.64309    5.13778   19.06267    0    0    0
     168        7       10 -0.52828700    0.48440    4.34166   22.14126    0    0    0
     169        7       10 -0.52828700    2.04883    2.56105   22.02216    0    0    0
     170        7       10 -0.51948700    2.18351    1.23152   19.42466    0    0    0
     171        7       10 -0.51948700    0.04805    0.27460   19.03878    0    0    0
     172        7        4 -0.10539700    0.93388   -1.94387   11.74832    0    0    0
     173        7        1 -0.13809700    2.14521   -3.16697   11.12957    0    0    0
     174        7        5 -0.06639800    2.99123   -2.56598   10.21583    0    0    0
     175        7        5 -0.06639800    1.50968   -4.24662   10.54249    0    0    0
     176        7        1  0.17619600    2.96693   -3.66722   12.32112    0    0    0
     177        7        5 -0.14149600    2.11330   -4.36181   13.17293    0    0    0
     178        7        6  0.16419600    3.74422   -4.37435   11.96022    0    0    0
     179        7        2 -0.04689900    3.60449   -2.55183   12.93740    0    0    0
     180        7        1  0.20179500    3.67984   -2.65564   14.34737    0    0    0
     181        7        5 -0.12319700    4.30905   -3.83630   14.71792    0    0    0
     182        7        5 -0.12319700    2.40778   -2.59386   14.90082    0    0    0
     183        7        1  0.04799900    4.49202   -1.46899   14.88084    0    0    0
     184        7        5 -0.10699700    3.86888   -0.28714   14.52138    0    0    0
     185        7        5 -0.10699700    5.75969   -1.49036   14.32694    0    0    0
     186        7        7  1.08897300    4.64853   -1.51420   16.70119    0    0    0
     187        7        8 -0.61098500    4.96028    0.04547   17.49156    0    0    0
     188        7        9  0.97637600    5.55344   -0.19536   19.14638    0    0    0
     189        7        1  0.32349200    7.27397   -0.73664   19.38011    0    0    0
     190        7        5 -0.15109600    7.84675   -0.03211   20.42143    0    0    0
     191        7        5 -0.15109600    7.30380   -2.08699   19.66790    0    0    0
     192        7        5 -0.15109600    7.99066   -0.49880   18.22302    0    0    0
     193        7       10 -0.52828700    5.29600    1.15880   19.82314    0    0    0
     194        7       10 -0.52828700    4.51223   -1.08221   19.84847    0    0    0
     195        7       10 -0.51948700    5.76948   -2.45668   17.16851    0    0    0
     196        7       10 -0.51948700    3.41204   -2.08358   17.41304    0    0    0
     197        7        1  0.10869700    0.97782   -0.57367    8.62233    0    0    0
     198        7        1  0.10869700   -0.31663   -1.90415   10.40185    0    0    0
     199        7        1  0.10869700   -1.60315   -0.58151    8.66958    0    0    0
     200        7        1 -0.21369500   -0.30021   -0.60237    9.53225    0    0    0
     201        7        1  0.10869700   -0.27013    0.66872   10.45235    0    0    0
     202        7        3  0.07529800    1.87040   -0.46606    9.27194    0    0    0
     203        7        3  0.07529800    1.01300    0.33573    7.98893    0    0    0
     204        7        3  0.07529800   -1.28959   -1.98999   10.92963    0    0    0
     205        7        3  0.07529800   -0.27296   -2.81410    9.77161    0    0    0
     206        7        3  0.07529800    0.66647    0.66200   11.04384    0    0    0
     207        7        3  0.07529800   -0.25373    1.59319    9.83918    0    0    0
     208        7        3  0.07529800   -2.49726   -0.62639    9.32535    0    0    0
     209        7        3  0.07529800   -1.61657   -1.48463    8.04425    0    0    0
     210        8       11  1.00000000   15.48310    3.08780   -0.93461    0    0    0
     211        9       11  1.00000000    4.60596   17.24820    5.32191    0    0    0
     212       10       11  1.00000000   -3.08911   22.06791   12.81732    0    0    0
     213       11       11  1.00000000   20.80698   -1.49672    8.99612    0    0    0
     214       12        1  0.11882500    3.62230    1.82473   15.82741    0    0    0
     215       12        2 -0.42547500    4.57700    0.91135   15.30061    0    0    0
     216       12        3  0.03382500    2.93366    2.10288   15.02588    0    0    0
     217       12        3  0.03382500    4.12082    2.72972   16.18876    0    0    0
     218       12        3  0.03382500    3.04971    1.36072   16.63542    0    0    0
     219       12        1  0.12552500    5.49179    0.47591   16.30731    0    0    0
     220       12        1  0.12552500    6.50962   -0.47442   15.68778    0    0    0
     221       12        3  0.03982500    4.94783   -0.03371   17.11145    0    0    0
     222       12        3  0.03982500    6.00835    1.33817   16.74556    0    0    0
     223       12        2 -0.42547500    7.41470   -0.92243   16.69664    0    0    0
     224       12        3  0.03982500    7.06040    0.03944   14.89081    0    0    0
     225       12        3  0.03982500    5.99334   -1.33081   15.23771    0    0    0
     226       12        1  0.11882500    8.38378   -1.81597   16.16480    0    0    0
     227       12        3  0.03382500    9.04407   -2.13143   16.97683    0    0    0
     228       12        3  0.03382500    8.98535   -1.31745   15.39858    0    0    0
     229       12        3  0.03382500    7.89896   -2.70365   15.74540    0    0    0
     230       13        1  0.11882500    8.27145    3.10182   16.28326    0    0    0
     231       13        2 -0.42547500    7.99459    4.47390   16.03031    0    0    0
     232       13        3  0.03382500    7.34231    2.53742   16.17291    0    0    0
     233       13        3  0.03382500    8.64019    2.97036   17.30544    0    0    0
     234       13        3  0.03382500    9.00186    2.71720   15.56589    0    0    0
     235       13        1  0.12552500    9.17721    5.26940   16.12251    0    0    0
     236       13        1  0.12552500    8.82334    6.73090   15.87414    0    0    0
     237       13        3  0.03982500    9.91248    4.93323   15.38183    0    0    0
     238       13        3  0.03982500    9.62801    5.16071   17.11617    0    0    0
     239       13        2 -0.42547500   10.00739    7.52456   15.95049    0    0    0
     240       13        3  0.03982500    8.09595    7.06913   16.62186    0    0    0
     241       13        3  0.03982500    8.36052    6.83899   14.88590    0    0    0
     242       13        1  0.11882500    9.72649    8.89908   15.72211    0    0    0
     243       13        3  0.03382500   10.66400    9.45761   15.78554    0    0    0
     244       13        3  0.03382500    9.03939    9.28162   16.48306    0    0    0
     245       13        3  0.03382500    9.30179    9.04385   14.72332    0    0    0
     246       14        1  0.11882500    1.83033   14.11467   27.74300    0    0    0
     247       14        2 -0.42547500    1.15427   14.95776   26.81813    0    0    0
     248       14        3  0.03382500    1.61795   14.47246   28.75340    0    0    0
     249       14        3  0.03382500    2.91144   14.15831   27.57750    0    0    0
     250       14        3  0.03382500    1.47613   13.08370   27.65516    0    0    0
     251       14        1  0.12552500    1.35958   14.52496   25.47261    0    0    0
     252       14        1  0.12552500    0.64234   15.47556   24.52138    0    0    0
     253       14        3  0.03982500    0.97235   13.50721   25.34415    0    0    0
     254       14        3  0.03982500    2.43136   14.50791   25.24157    0    0    0
     255       14        2 -0.42547500    0.83391   15.03461   23.17730    0    0    0
     256       14        3  0.03982500    1.03771   16.49115   24.64314    0    0    0
     257       14        3  0.03982500   -0.42767   15.50342   24.75975    0    0    0
     258       14        1  0.11882500    0.17873   15.89147   22.25161    0    0    0
     259       14        3  0.03382500    0.35175   15.50624   21.24336    0    0    0
     260       14        3  0.03382500    0.58582   16.90537   22.31320    0    0    0
     261       14        3  0.03382500   -0.90007   15.90610   22.43844    0    0    0
     262       15        1  0.11882500   11.45173   11.64337   20.64808    0    0    0
     263       15        2 -0.42547500   11.25184   10.79646   21.77325    0    0    0
     264       15        3  0.03382500   11.57359   12.66843   21.00646    0    0    0
     265       15        3  0.03382500   10.58158   11.60674   19.98507    0    0    0
     266       15        3  0.03382500   12.35442   11.35362   20.10288    0    0    0
     267       15        1  0.12552500   11.12007    9.42988   21.37957    0    0    0
     268       15        1  0.12552500   10.87804    8.56976   22.61427    0    0    0
     269       15        3  0.03982500   12.03158    9.09876   20.86792    0    0    0
     270       15        3  0.03982500   10.28311    9.31823   20.67998    0    0    0
     271       15        2 -0.42547500   10.76201    7.20178   22.22329    0    0    0
     272       15        3  0.03982500    9.96053    8.89485   23.11930    0    0    0
     273       15        3  0.03982500   11.70818    8.69053   23.32052    0    0    0
     274       15        1  0.11882500   10.53757    6.35855   23.34532    0    0    0
     275       15        3  0.03382500   10.46304    5.32690   22.99171    0    0    0
     276       15        3  0.03382500    9.60108    6.62563   23.84447    0    0    0
     277       15        3  0.03382500   11.37305    6.42568   24.04987    0    0    0
     278       16        1  0.11882500   10.04764    2.58019   19.34271    0    0    0
     279       16        2 -0.42547500   11.21369    2.94433   18.61404    0    0    0
     280       16        3  0.03382500    9.18202    2.69341   18.68551    0    0    0
     281       16        3  0.03382500    9.91800    3.23914   20.20704    0    0    0
     282       16        3  0.03382500   10.10608    1.53768   19.66800    0    0    0
     283       16        1  0.12552500   12.39257    2.78545   19.40456    0    0    0
     284       16        1  0.12552500   13.60762    3.21610   18.59149    0    0    0
     285       16        3  0.03982500   12.50031    1.73748   19.70854    0    0    0
     286       16        3  0.03982500   12.32091    3.39316   20.31448    0    0    0
     287       16        2 -0.42547500   14.78787    3.04266   19.37546    0    0    0
     288       16        3  0.03982500   13.50380    4.26732   18.29700    0    0    0
     289       16        3  0.03982500   13.67306    2.61785   17.67480    0    0    0
     290       16        1  0.11882500   15.95068    3.42999   18.65559    0    0    0
     291       16        3  0.03382500   16.82168    3.27178   19.29686    0    0    0
     292       16        3  0.03382500   15.90098    4.49005   18.38856    0    0    0
     293       16        3  0.03382500   16.06618    2.81895   17.75436    0    0    0
     294       17        1  0.11882500    3.01757    5.04049   28.49440    0    0    0
     295       17        2 -0.42547500    2.80880    6.40047   28.13371    0    0    0
     296       17        3  0.03382500    2.78176    4.41523   27.62983    0    0    0
     297       17        3  0.03382500    2.35494    4.75968   29.31913    0    0    0
     298       17        3  0.03382500    4.06123    4.87159   28.77419    0    0    0
     299       17        1  0.12552500    3.13363    7.28062   29.21061    0    0    0
     300       17        1  0.12552500    2.86487    8.71936   28.78551    0    0    0
     301       17        3  0.03982500    4.18922    7.16391   29.48330    0    0    0
     302       17        3  0.03982500    2.53007    7.03567   30.09271    0    0    0
     303       17        2 -0.42547500    3.20427    9.60080   29.85583    0    0    0