Created by /home/xiruan/ATLAS-toolkit/scripts/createLammpsInput.pl on Thu Aug 21 15:52:30 2025

         980 atoms
         928 bonds
        1672 angles
        1680 dihedrals

          11 atom types
          12 bond types
          28 angle types
          15 dihedral types

		   0.000000  25.998430 xlo xhi
		   0.000000  25.998430 ylo yhi
		   0.000000  25.998430 zlo zhi

Masses

    1 3.2060E+01 # ss     
    2 1.2010E+01 # c3     
    3 1.9000E+01 # f      
    4 1.0080E+00 # h2     
    5 1.6000E+01 # os     
    6 3.2060E+01 # sy     
    7 1.4010E+01 # ne     
    8 3.2060E+01 # s6     
    9 1.6000E+01 # o      
   10 1.0080E+00 # h1     
   11 2.2990E+01 # Na+    

Pair Coeffs

    1    0.28240    3.53241 # ss ss 
    2    0.10780    3.39771 # c3 c3 
    3    0.08320    3.03422 # f f 
    4    0.02080    2.24382 # h2 h2 
    5    0.07260    3.15610 # os os 
    6    0.28240    3.53241 # sy sy 
    7    0.09410    3.38417 # ne ne 
    8    0.28240    3.53241 # s6 s6 
    9    0.14630    3.04812 # o o 
   10    0.02080    2.42200 # h1 h1 
   11    0.16844    2.18448 # Na+ Na+ 

Bond Coeffs

    1      183    1.839 # c3 ss 
    2    352.6     1.35 # c3 f 
    3    232.5    1.538 # c3 c3 
    4    377.3    1.096 # c3 h2 
    5    284.8    1.432 # c3 os 
    6    199.4    1.809 # c3 sy 
    7      326    1.672 # ne sy 
    8    653.2    1.466 # o sy 
    9    412.2    1.598 # ne s6 
   10    200.1    1.808 # c3 s6 
   11      683    1.453 # o s6 
   12    375.9    1.097 # c3 h1 

Angle Coeffs

    1     63.2   110.27 # c3 c3 ss 
    2     42.5   108.76 # h1 c3 ss 
    3     71.1    99.24 # c3 ss c3 
    4     81.9   111.75 # f c3 ss 
    5    121.6   107.36 # f c3 f 
    6     87.9   109.24 # c3 c3 f 
    7     46.7   110.22 # c3 c3 h2 
    8     66.6   108.79 # f c3 h2 
    9     85.3   107.97 # c3 c3 os 
   10    114.4   110.58 # f c3 os 
   11     62.4   109.58 # h2 c3 os 
   12     66.3   112.48 # c3 os c3 
   13     64.1   109.92 # c3 c3 sy 
   14     83.9   109.68 # f c3 sy 
   15     92.4   102.19 # c3 sy ne 
   16     67.7   119.63 # s6 ne sy 
   17     91.3   108.19 # c3 s6 ne 
   18     83.9   109.68 # f c3 s6 
   19    124.1    119.1 # ne s6 o 
   20     93.7   108.61 # c3 s6 o 
   21    128.2   120.05 # o s6 o 
   22     93.8   107.85 # c3 sy o 
   23    123.2   109.65 # ne sy o 
   24    126.4   121.41 # o sy o 
   25     64.9   111.51 # c3 c3 c3 
   26     46.9   109.56 # c3 c3 h1 
   27     38.8   108.46 # h1 c3 h1 
   28     62.4   109.78 # h1 c3 os 

Dihedral Coeffs

    1        1 0.155556        3        0 # X c3 c3 X 
    2        1 0.383333        3        0 # X c3 os X 
    3        1 0.144444        3        0 # X c3 s6 X 
    4        1 0.333333        3        0 # X c3 ss X 
    5        1 0.144444        3        0 # X c3 sy X 
    6        2      0.5        3      180      6.8        1      180 # X ne sy X 
    7        5     0.24        3        0     0.16        2        0     0.91        3        0        1        2        0        0        1        0 # c3 os c3 c3 
    8        1    0.337        3        0 # c3 os c3 h1 
    9        1    0.167        3        0 # c3 ss c3 c3 
   10        1     0.22        3        0 # c3 ss c3 h1 
   11        2        1        3        0     0.64        1      180 # f c3 c3 f 
   12        2        0        3        0     0.25        1        0 # h1 c3 c3 os 
   13        3        0        3        0        0        2      180     0.17        1      180 # os c3 c3 os 
   14        1  6.66667        2      180 # sy ne s6 c3 
   15        1  6.66667        2      180 # sy ne s6 o 

Atoms

       1        1        1 -0.10539700   19.80938   17.19362   23.06360    0    0    0
       2        1        2 -0.13809700   19.52710   17.47014   24.85864    0    0    0
       3        1        3 -0.06639800   19.77049   18.78504   25.19754    0    0    0
       4        1        3 -0.06639800   20.36407   16.63275   25.57081    0    0    0
       5        1        2  0.17619600   18.09284   17.14972   25.27587    0    0    0
       6        1        3 -0.14149600   17.81182   15.83332   24.94374    0    0    0
       7        1        4  0.16419600   17.40422   17.83950   24.73918    0    0    0
       8        1        5 -0.04689900   18.03163   17.33289   26.67876    0    0    0
       9        1        2  0.20179500   16.72433   17.19955   27.19730    0    0    0
      10        1        3 -0.12319700   16.22819   15.92520   26.96723    0    0    0
      11        1        3 -0.12319700   15.87847   18.14814   26.64073    0    0    0
      12        1        2  0.04799900   16.81355   17.43046   28.71144    0    0    0
      13        1        3 -0.10699700   17.29016   18.70620   28.95443    0    0    0
      14        1        3 -0.10699700   17.69754   16.51780   29.26279    0    0    0
      15        1        6  1.08897300   15.20476   17.24212   29.54916    0    0    0
      16        1        7 -0.61098500   15.01397   18.17285   31.05361    0    0    0
      17        1        8  0.97637600   14.11046   17.26003   32.27638    0    0    0
      18        1        2  0.32349200   14.95373   15.89154   33.13044    0    0    0
      19        1        3 -0.15109600   14.64476   15.92435   34.47729    0    0    0
      20        1        3 -0.15109600   14.54624   14.68536   32.59550    0    0    0
      21        1        3 -0.15109600   16.31976   16.02524   32.97320    0    0    0
      22        1        9 -0.52828700   13.64892   18.34128   33.26373    0    0    0
      23        1        9 -0.52828700   12.78063   16.87263   31.61061    0    0    0
      24        1        9 -0.51948700   14.89228   15.77563   29.89063    0    0    0
      25        1        9 -0.51948700   14.00108   17.64548   28.68472    0    0    0
      26        1        1 -0.10539700   22.52945   19.76823   25.21566    0    0    0
      27        1        2 -0.13809700   22.71138   19.13006   26.92587    0    0    0
      28        1        3 -0.06639800   24.05132   19.11471   27.26914    0    0    0
      29        1        3 -0.06639800   22.19184   17.85495   27.04367    0    0    0
      30        1        2  0.17619600   21.94138   20.04966   27.87742    0    0    0
      31        1        3 -0.14149600   20.61129   20.07607   27.47871    0    0    0
      32        1        4  0.16419600   22.37940   21.07006   27.79477    0    0    0
      33        1        5 -0.04689900   22.06399   19.56251   29.20197    0    0    0
      34        1        2  0.20179500   21.28469   20.32610   30.10939    0    0    0
      35        1        3 -0.12319700   19.93341   20.09209   29.89549    0    0    0
      36        1        3 -0.12319700   21.55610   21.68262   29.98671    0    0    0
      37        1        2  0.04799900   21.62764   19.89093   31.53685    0    0    0
      38        1        3 -0.10699700   22.97335   20.10806   31.77426    0    0    0
      39        1        3 -0.10699700   21.36429   18.54094   31.68510    0    0    0
      40        1        6  1.08897300   20.65854   20.82281   32.77831    0    0    0
      41        1        7 -0.61098500   21.57060   21.95481   33.79833    0    0    0
      42        1        8  0.97637600   20.55848   22.55835   35.12411    0    0    0
      43        1        2  0.32349200   20.10902   21.42456   36.47436    0    0    0
      44        1        3 -0.15109600   20.14296   22.10040   37.67855    0    0    0
      45        1        3 -0.15109600   18.83705   20.92811   36.26318    0    0    0
      46        1        3 -0.15109600   21.00987   20.37810   36.51541    0    0    0
      47        1        9 -0.52828700   21.34718   23.76411   35.65442    0    0    0
      48        1        9 -0.52828700   19.36099   23.25673   34.46199    0    0    0
      49        1        9 -0.51948700   19.91821   19.89234   33.75082    0    0    0
      50        1        9 -0.51948700   19.51211   21.65043   32.17531    0    0    0
      51        1        1 -0.10539700   25.08014   19.36988   22.21882    0    0    0
      52        1        2 -0.13809700   25.55812   20.53526   20.88164    0    0    0
      53        1        3 -0.06639800   26.75449   21.12106   21.25214    0    0    0
      54        1        3 -0.06639800   24.62102   21.54527   20.73994    0    0    0
      55        1        2  0.17619600   25.75094   19.79299   19.55698    0    0    0
      56        1        3 -0.14149600   24.54710   19.26086   19.13696    0    0    0
      57        1        4  0.16419600   26.47488   18.96723   19.75597    0    0    0
      58        1        5 -0.04689900   26.22738   20.69455   18.57297    0    0    0
      59        1        2  0.20179500   26.95130   20.00327   17.56800    0    0    0
      60        1        3 -0.12319700   26.19846   18.96037   17.04242    0    0    0
      61        1        3 -0.12319700   28.13669   19.51119   18.09735    0    0    0
      62        1        2  0.04799900   27.28845   20.97719   16.43362    0    0    0
      63        1        3 -0.10699700   28.04126   22.02272   16.93679    0    0    0
      64        1        3 -0.10699700   26.12006   21.48858   15.89575    0    0    0
      65        1        6  1.08897300   28.24245   20.15322   15.10515    0    0    0
      66        1        7 -0.61098500   29.78494   20.88435   14.62395    0    0    0
      67        1        8  0.97637600   29.54487   21.98489   13.25662    0    0    0
      68        1        2  0.32349200   28.24553   23.25307   13.34042    0    0    0
      69        1        3 -0.15109600   28.56272   24.29289   12.48844    0    0    0
      70        1        3 -0.15109600   27.03357   22.70707   12.96444    0    0    0
      71        1        3 -0.15109600   28.15327   23.73752   14.63059    0    0    0
      72        1        9 -0.52828700   30.92887   22.61656   13.05147    0    0    0
      73        1        9 -0.52828700   29.44580   21.07795   12.01931    0    0    0
      74        1        9 -0.51948700   27.44468   19.92872   13.81029    0    0    0
      75        1        9 -0.51948700   28.63100   18.71025   15.46338    0    0    0
      76        1        1 -0.10539700   22.85236   17.05091   20.22898    0    0    0
      77        1        2 -0.13809700   21.37827   16.04323   19.83177    0    0    0
      78        1        3 -0.06639800   20.23524   16.80571   19.98659    0    0    0
      79        1        3 -0.06639800   21.30786   14.92131   20.63834    0    0    0
      80        1        2  0.17619600   21.48840   15.59429   18.37177    0    0    0
      81        1        3 -0.14149600   22.58301   14.74172   18.26377    0    0    0
      82        1        4  0.16419600   20.57727   15.02249   18.09364    0    0    0
      83        1        5 -0.04689900   21.58161   16.75019   17.54376    0    0    0
      84        1        2  0.20179500   22.44233   16.57815   16.43288    0    0    0
      85        1        3 -0.12319700   22.05685   15.47631   15.68152    0    0    0
      86        1        3 -0.12319700   23.75495   16.43277   16.86203    0    0    0
      87        1        2  0.04799900   22.36205   17.83323   15.55500    0    0    0
      88        1        3 -0.10699700   22.75054   18.93644   16.29411    0    0    0
      89        1        3 -0.10699700   21.05805   18.01798   15.13109    0    0    0
      90        1        6  1.08897300   23.44206   17.70709   14.08604    0    0    0
      91        1        7 -0.61098500   23.95303   19.24760   13.36478    0    0    0
      92        1        8  0.97637600   24.57411   18.99751   11.72162    0    0    0
      93        1        2  0.32349200   23.38295   18.68595   10.38299    0    0    0
      94        1        3 -0.15109600   23.74685   19.40259    9.25926    0    0    0
      95        1        3 -0.15109600   23.36122   17.33848   10.08135    0    0    0
      96        1        3 -0.15109600   22.12365   19.08528   10.78767    0    0    0
      97        1        9 -0.52828700   25.40113   20.26285   11.45148    0    0    0
      98        1        9 -0.52828700   25.68125   17.93746   11.84025    0    0    0
      99        1        9 -0.51948700   22.79113   16.90303   12.94895    0    0    0
     100        1        9 -0.51948700   24.74433   16.93353   14.34201    0    0    0
     101        1        2  0.10869700   20.94861   18.58873   22.60847    0    0    0
     102        1        2  0.10869700   22.89160   16.99416   22.06572    0    0    0
     103        1        2  0.10869700   22.88296   18.22292   24.27826    0    0    0
     104        1        2 -0.21369500   22.48826   18.33289   22.77015    0    0    0
     105        1        2  0.10869700   23.25215   19.54191   22.12367    0    0    0
     106        1       10  0.07529800   20.73407   18.78129   21.53742    0    0    0
     107        1       10  0.07529800   20.63224   19.52867   23.10432    0    0    0
     108        1       10  0.07529800   23.94585   16.74545   22.30918    0    0    0
     109        1       10  0.07529800   22.31543   16.13602   22.46412    0    0    0
     110        1       10  0.07529800   22.95069   19.63078   21.06144    0    0    0
     111        1       10  0.07529800   22.96511   20.49302   22.61752    0    0    0
     112        1       10  0.07529800   23.96928   18.01832   24.37577    0    0    0
     113        1       10  0.07529800   22.35309   17.36339   24.71105    0    0    0
     114        2        1 -0.10539700    3.01284    5.68515   20.45461    0    0    0
     115        2        2 -0.13809700    2.13079    5.08286   21.95045    0    0    0
     116        2        3 -0.06639800    2.17712    6.02211   22.95977    0    0    0
     117        2        3 -0.06639800    2.72310    3.90653   22.36796    0    0    0
     118        2        2  0.17619600    0.65855    4.78314   21.67375    0    0    0
     119        2        3 -0.14149600    0.57464    3.84404   20.65727    0    0    0
     120        2        4  0.16419600    0.15466    5.72763   21.37033    0    0    0
     121        2        5 -0.04689900    0.12086    4.26390   22.87653    0    0    0
     122        2        2  0.20179500   -1.27573    4.06025   22.81531    0    0    0
     123        2        3 -0.12319700   -1.59843    3.13472   21.83433    0    0    0
     124        2        3 -0.12319700   -1.93443    5.25774   22.57614    0    0    0
     125        2        2  0.04799900   -1.71175    3.50896   24.17908    0    0    0
     126        2        3 -0.10699700   -1.41182    4.43184   25.16501    0    0    0
     127        2        3 -0.10699700   -1.01731    2.34024   24.44409    0    0    0
     128        2        6  1.08897300   -3.49609    3.13992   24.25238    0    0    0
     129        2        7 -0.61098500   -4.22893    3.23293   25.87111    0    0    0
     130        2        8  0.97637600   -5.44103    1.96140   26.11351    0    0    0
     131        2        2  0.32349200   -4.86253    0.25637   26.38091    0    0    0
     132        2        3 -0.15109600   -5.60660   -0.33411   27.38502    0    0    0
     133        2        3 -0.15109600   -5.00316   -0.47257   25.21647    0    0    0
     134        2        3 -0.15109600   -3.53189    0.27649   26.75189    0    0    0
     135        2        9 -0.52828700   -6.26300    2.47104   27.30583    0    0    0
     136        2        9 -0.52828700   -6.44829    2.11958   24.96365    0    0    0
     137        2        9 -0.51948700   -3.82765    1.74622   23.69335    0    0    0
     138        2        9 -0.51948700   -4.35952    4.06205   23.37888    0    0    0
     139        2        1 -0.10539700    4.71462    6.51462   24.33723    0    0    0
     140        2        2 -0.13809700    4.34562    5.10544   25.45222    0    0    0
     141        2        3 -0.06639800    5.49167    4.75571   26.14344    0    0    0
     142        2        3 -0.06639800    3.88428    4.01232   24.74374    0    0    0
     143        2        2  0.17619600    3.25399    5.53183   26.43739    0    0    0
     144        2        3 -0.14149600    2.13522    5.91694   25.71016    0    0    0
     145        2        4  0.16419600    3.64022    6.39812   27.02072    0    0    0
     146        2        5 -0.04689900    2.95062    4.44887   27.29874    0    0    0
     147        2        2  0.20179500    1.87321    4.76328   28.16716    0    0    0
     148        2        3 -0.12319700    0.68618    4.83593   27.45151    0    0    0
     149        2        3 -0.12319700    2.09853    5.96034   28.83434    0    0    0
     150        2        2  0.04799900    1.73986    3.64718   29.20697    0    0    0
     151        2        3 -0.10699700    2.91465    3.54917   29.93133    0    0    0
     152        2        3 -0.10699700    1.51321    2.44225   28.56620    0    0    0
     153        2        6  1.08897300    0.36308    3.96769   30.36908    0    0    0
     154        2        7 -0.61098500    0.81952    4.33211   32.04615    0    0    0
     155        2        8  0.97637600   -0.60880    4.33334   33.09794    0    0    0
     156        2        2  0.32349200   -1.42499    2.75153   33.47531    0    0    0
     157        2        3 -0.15109600   -1.83237    2.74277   34.79514    0    0    0
     158        2        3 -0.15109600   -2.52457    2.58625   32.65521    0    0    0
     159        2        3 -0.15109600   -0.53653    1.71437   33.26742    0    0    0
     160        2        9 -0.52828700   -0.10801    5.01615   34.37860    0    0    0
     161        2        9 -0.52828700   -1.54973    5.41062   32.53737    0    0    0
     162        2        9 -0.51948700   -0.61068    2.78258   30.45244    0    0    0
     163        2        9 -0.51948700   -0.55643    5.12126   29.93707    0    0    0
     164        2        1 -0.10539700    8.13985    7.31279   22.52711    0    0    0
     165        2        2 -0.13809700    8.97682    8.91190   22.18510    0    0    0
     166        2        3 -0.06639800    9.94717    9.08606   23.15454    0    0    0
     167        2        3 -0.06639800    8.08994    9.97131   22.28220    0    0    0
     168        2        2  0.17619600    9.64139    8.89356   20.80637    0    0    0
     169        2        3 -0.14149600    8.67780    8.79087   19.82160    0    0    0
     170        2        4  0.16419600   10.29889    7.99213   20.78066    0    0    0
     171        2        5 -0.04689900   10.37230   10.09258   20.61606    0    0    0
     172        2        2  0.20179500   11.42653    9.89523   19.68787    0    0    0
     173        2        3 -0.12319700   10.94935    9.34622   18.50401    0    0    0
     174        2        3 -0.12319700   12.38979    9.06245   20.24114    0    0    0
     175        2        2  0.04799900   12.07306   11.24771   19.36880    0    0    0
     176        2        3 -0.10699700   12.55758   11.80994   20.53592    0    0    0
     177        2        3 -0.10699700   11.12762   12.09919   18.82372    0    0    0
     178        2        6  1.08897300   13.45916   11.06479   18.18596    0    0    0
     179        2        7 -0.61098500   15.03312   11.73676   18.65126    0    0    0
     180        2        8  0.97637600   15.20818   13.38507   18.02610    0    0    0
     181        2        2  0.32349200   13.89141   14.60294   18.32018    0    0    0
     182        2        3 -0.15109600   14.42098   15.87692   18.25539    0    0    0
     183        2        3 -0.15109600   12.90614   14.46778   17.36137    0    0    0
     184        2        3 -0.15109600   13.34651   14.40281   19.57349    0    0    0
     185        2        9 -0.52828700   16.54569   13.85632   18.61394    0    0    0
     186        2        9 -0.52828700   15.57753   13.21866   16.54313    0    0    0
     187        2        9 -0.51948700   13.15482   11.60381   16.77872    0    0    0
     188        2        9 -0.51948700   13.78015    9.59488   17.87322    0    0    0
     189        2        1 -0.10539700    6.83331    6.56282   19.05859    0    0    0
     190        2        2 -0.13809700    5.63281    6.07241   17.76847    0    0    0
     191        2        3 -0.06639800    4.46575    6.79922   17.91537    0    0    0
     192        2        3 -0.06639800    5.35489    4.71861   17.83328    0    0    0
     193        2        2  0.17619600    6.24961    6.38388   16.40179    0    0    0
     194        2        3 -0.14149600    7.36014    5.56250   16.23215    0    0    0
     195        2        4  0.16419600    5.51585    6.14076   15.60370    0    0    0
     196        2        5 -0.04689900    6.55438    7.77462   16.34393    0    0    0
     197        2        2  0.20179500    7.74559    8.06011   15.63400    0    0    0
     198        2        3 -0.12319700    7.69277    7.52419   14.35448    0    0    0
     199        2        3 -0.12319700    8.84396    7.55962   16.32056    0    0    0
     200        2        2  0.04799900    7.89871    9.58271   15.53103    0    0    0
     201        2        3 -0.10699700    7.95839   10.12543   16.80232    0    0    0
     202        2        3 -0.10699700    6.80463   10.11357   14.87116    0    0    0
     203        2        6  1.08897300    9.41388   10.05510   14.62477    0    0    0
     204        2        7 -0.61098500   10.05563   11.67317   14.97752    0    0    0
     205        2        8  0.97637600   11.20404   12.18142   13.72409    0    0    0
     206        2        2  0.32349200   10.54892   12.71620   12.11392    0    0    0
     207        2        3 -0.15109600   11.23052   13.83796   11.68281    0    0    0
     208        2        3 -0.15109600   10.70029   11.70271   11.18814    0    0    0
     209        2        3 -0.15109600    9.20774   13.02207   12.24330    0    0    0
     210        2        9 -0.52828700   12.00622   13.30176   14.40187    0    0    0
     211        2        9 -0.52828700   12.26124   11.06863   13.63690    0    0    0
     212        2        9 -0.51948700    9.22512    9.99811   13.10020    0    0    0
     213        2        9 -0.51948700   10.59353    9.09803   14.85345    0    0    0
     214        2        2  0.10869700    4.16392    6.96855   21.14686    0    0    0
     215        2        2  0.10869700    6.25717    5.61189   20.52220    0    0    0
     216        2        2  0.10869700    5.44255    5.59349   22.91831    0    0    0
     217        2        2 -0.21369500    5.57134    6.47468   21.63410    0    0    0
     218        2        2  0.10869700    6.44329    7.73813   21.96055    0    0    0
     219        2       10  0.07529800    4.31124    7.68492   20.31297    0    0    0
     220        2       10  0.07529800    3.65075    7.57790   21.91810    0    0    0
     221        2       10  0.07529800    7.18021    5.14539   20.92590    0    0    0
     222        2       10  0.07529800    5.62659    4.74892   20.23108    0    0    0
     223        2       10  0.07529800    6.51134    8.37160   21.05435    0    0    0
     224        2       10  0.07529800    5.95780    8.35441   22.74502    0    0    0
     225        2       10  0.07529800    6.44240    5.23232   23.23666    0    0    0
     226        2       10  0.07529800    4.84407    4.70669   22.66879    0    0    0
     227        3        1 -0.10539700    7.07614   16.05672   16.62766    0    0    0
     228        3        2 -0.13809700    8.18842   17.46504   16.23041    0    0    0
     229        3        3 -0.06639800    7.57540   18.34610   15.36382    0    0    0
     230        3        3 -0.06639800    9.34522   16.96679   15.66254    0    0    0
     231        3        2  0.17619600    8.59053   18.25482   17.47476    0    0    0
     232        3        3 -0.14149600    9.20638   17.39611   18.37228    0    0    0
     233        3        4  0.16419600    7.67448   18.69536   17.92732    0    0    0
     234        3        5 -0.04689900    9.49530   19.25445   17.04171    0    0    0
     235        3        2  0.20179500    9.85702   20.15509   18.06820    0    0    0
     236        3        3 -0.12319700   10.50175   19.49362   19.10254    0    0    0
     237        3        3 -0.12319700    8.73937   20.82042   18.55116    0    0    0
     238        3        2  0.04799900   10.82425   21.17520   17.45359    0    0    0
     239        3        3 -0.10699700   10.18646   21.85532   16.43164    0    0    0
     240        3        3 -0.10699700   11.91713   20.50908   16.92417    0    0    0
     241        3        6  1.08897300   11.43263   22.39082   18.66914    0    0    0
     242        3        7 -0.61098500   11.89933   23.97189   17.99952    0    0    0
     243        3        8  0.97637600   13.33681   24.62478   18.80707    0    0    0
     244        3        2  0.32349200   14.95524   23.88785   18.41858    0    0    0
     245        3        3 -0.15109600   15.89894   24.88798   18.27813    0    0    0
     246        3        3 -0.15109600   15.33716   23.03636   19.43649    0    0    0
     247        3        3 -0.15109600   14.86421   23.17838   17.23663    0    0    0
     248        3        9 -0.52828700   13.29902   26.11879   18.45566    0    0    0
     249        3        9 -0.52828700   12.99529   24.65895   20.30506    0    0    0
     250        3        9 -0.51948700   12.64258   21.86873   19.46180    0    0    0
     251        3        9 -0.51948700   10.42442   22.71914   19.78024    0    0    0
     252        3        1 -0.10539700    7.15983   17.55101   12.57563    0    0    0
     253        3        2 -0.13809700    8.86276   18.11658   12.19442    0    0    0
     254        3        3 -0.06639800    9.23814   17.63585   10.95285    0    0    0
     255        3        3 -0.06639800    9.76216   17.67917   13.14808    0    0    0
     256        3        2  0.17619600    8.88130   19.64747   12.18656    0    0    0
     257        3        3 -0.14149600    8.45851   20.09602   13.43110    0    0    0
     258        3        4  0.16419600    8.17198   19.99329   11.40096    0    0    0
     259        3        5 -0.04689900   10.19391   20.09912   11.90398    0    0    0
     260        3        2  0.20179500   10.28393   21.51312   11.98331    0    0    0
     261        3        3 -0.12319700   10.17031   21.92740   13.30313    0    0    0
     262        3        3 -0.12319700    9.30548   22.12309   11.20909    0    0    0
     263        3        2  0.04799900   11.65588   21.94718   11.45986    0    0    0
     264        3        3 -0.10699700   11.79769   21.53985   10.14516    0    0    0
     265        3        3 -0.10699700   12.64945   21.35270   12.21697    0    0    0
     266        3        6  1.08897300   11.86293   23.76392   11.53319    0    0    0
     267        3        7 -0.61098500   11.93027   24.61036    9.97347    0    0    0
     268        3        8  0.97637600   12.41627   26.30131   10.19889    0    0    0
     269        3        2  0.32349200   14.13405   26.66722   10.67430    0    0    0
     270        3        3 -0.15109600   14.56967   27.79592   10.00777    0    0    0
     271        3        3 -0.15109600   14.20530   26.88364   12.03704    0    0    0
     272        3        3 -0.15109600   14.94247   25.59949   10.33562    0    0    0
     273        3        9 -0.52828700   12.06318   26.95592    8.85579    0    0    0
     274        3        9 -0.52828700   11.35943   26.92911   11.12036    0    0    0
     275        3        9 -0.51948700   13.14168   24.17019   12.28110    0    0    0
     276        3        9 -0.51948700   10.76712   24.48029   12.33872    0    0    0
     277        3        1 -0.10539700    5.43469   14.18104   11.42976    0    0    0
     278        3        2 -0.13809700    3.70771   13.82779   10.91267    0    0    0
     279        3        3 -0.06639800    3.68743   13.80138    9.53042    0    0    0
     280        3        3 -0.06639800    2.84662   14.83032   11.32717    0    0    0
     281        3        2  0.17619600    3.24700   12.46988   11.44813    0    0    0
     282        3        3 -0.14149600    3.19416   12.50239   12.82833    0    0    0
     283        3        4  0.16419600    4.00869   11.72251   11.12127    0    0    0
     284        3        5 -0.04689900    1.95707   12.17320   10.94202    0    0    0
     285        3        2  0.20179500    1.74202   10.77161   10.90773    0    0    0
     286        3        3 -0.12319700    1.99224   10.20046   12.14943    0    0    0
     287        3        3 -0.12319700    2.56156   10.19397    9.94743    0    0    0
     288        3        2  0.04799900    0.28111   10.49774   10.53390    0    0    0
     289        3        3 -0.10699700    0.01263   11.05681    9.29762    0    0    0
     290        3        3 -0.10699700   -0.55624   11.07325   11.47390    0    0    0
     291        3        6  1.08897300   -0.06373    8.70097   10.45287    0    0    0
     292        3        7 -0.61098500   -0.77966    8.06623    8.95957    0    0    0
     293        3        8  0.97637600   -2.54549    8.02026    9.09424    0    0    0
     294        3        2  0.32349200   -3.44428    9.50138    9.64381    0    0    0
     295        3        3 -0.15109600   -4.74319    9.45024    9.17700    0    0    0
     296        3        3 -0.15109600   -3.45606    9.55651   11.02408    0    0    0
     297        3        3 -0.15109600   -2.82741   10.63068    9.14191    0    0    0
     298        3        9 -0.52828700   -3.00467    7.57447    7.69890    0    0    0
     299        3        9 -0.52828700   -2.85577    6.76424    9.92456    0    0    0
     300        3        9 -0.51948700   -0.93321    8.17898   11.60831    0    0    0
     301        3        9 -0.51948700    1.20153    7.84700   10.62984    0    0    0
     302        3        1 -0.10539700    5.34005   12.69071   14.90395    0    0    0
     303        3        2 -0.13809700    5.60067   12.58607   16.71151    0    0    0