Created by ../../../../tpascal/scripts/createLammpsInput.pl on Wed Nov 15 10:13:42 2023
  
        1296 atoms
           2 atom types

                   0.000000  18.774350 xlo xhi
                   0.000000  18.774350 ylo yhi
                   0.000000  97.548700 zlo zhi

Masses

1 15.9994
2 1.00784


Atoms

1  1  11.96039 8.35310 37.66648 0 0 0
2  2  11.87980 7.43856 37.39565 0 0 0
3  2  11.54684 8.84981 36.96045 0 0 0
4  1  10.09220 10.13101 39.54740 0 0 0
5  2  9.31641 9.65105 39.83726 0 0 0
6  2  10.74349 9.45157 39.37302 0 0 0
7  1  4.10878 10.44299 40.42498 0 0 0
8  2  3.27727 10.18786 40.82463 0 0 0
9  2  4.71688 10.51406 41.16077 0 0 0
10  1  14.11294 14.53702 38.32732 0 0 0
11  2  13.65109 13.76575 38.65603 0 0 0
12  2  14.92550 14.56363 38.83256 0 0 0
13  1  4.08891 14.47700 40.62078 0 0 0
14  2  4.39171 13.58677 40.44180 0 0 0
15  2  4.83327 15.03402 40.39301 0 0 0
16  1  2.51798 5.40318 34.20922 0 0 0
17  2  1.62965 5.74477 34.10721 0 0 0
18  2  2.80209 5.20321 33.31730 0 0 0
19  1  0.48128 8.00374 40.09319 0 0 0
20  2  1.05289 7.23596 40.09355 0 0 0
21  2  0.48143 8.30262 39.18385 0 0 0
22  1  10.33927 16.82283 37.94772 0 0 0
23  2  9.72042 17.27858 37.37716 0 0 0
24  2  11.19445 16.97797 37.54669 0 0 0
25  1  9.53310 12.80672 39.55442 0 0 0
26  2  9.46392 11.86572 39.39333 0 0 0
27  2  10.29508 12.89687 40.12668 0 0 0
28  1  1.72376 3.41218 41.88008 0 0 0
29  2  1.54405 2.51475 42.16036 0 0 0
30  2  1.32177 3.95936 42.55478 0 0 0
31  1  10.56361 5.61376 39.78131 0 0 0
32  2  10.94010 4.74095 39.66868 0 0 0
33  2  10.46556 5.94963 38.89036 0 0 0
34  1  4.69411 3.98633 35.24306 0 0 0
35  2  4.80079 4.88670 35.54993 0 0 0
36  2  3.78335 3.93812 34.95252 0 0 0
37  1  14.34603 3.10881 36.71415 0 0 0
38  2  15.16699 2.61846 36.75670 0 0 0
39  2  14.37943 3.69857 37.46733 0 0 0
40  1  2.34243 5.90823 40.48832 0 0 0
41  2  3.02344 6.17206 41.10706 0 0 0
42  2  2.02724 5.06831 40.82212 0 0 0
43  1  6.53489 6.95496 39.57558 0 0 0
44  2  7.04271 7.45306 40.21608 0 0 0
45  2  7.06621 6.17848 39.39951 0 0 0
46  1  18.63598 5.12548 43.27851 0 0 0
47  2  17.93120 5.51365 42.76002 0 0 0
48  2  18.90177 5.82051 43.88060 0 0 0
49  1  4.81850 1.59482 43.84192 0 0 0
50  2  4.82034 2.11206 43.03651 0 0 0
51  2  3.98893 1.11784 43.81891 0 0 0
52  1  11.20561 11.70675 35.34091 0 0 0
53  2  10.58733 12.17169 34.77718 0 0 0
54  2  11.71793 12.39950 35.75786 0 0 0
55  1  6.06878 11.23434 42.01927 0 0 0
56  2  5.73572 11.86123 42.66137 0 0 0
57  2  6.24545 11.76052 41.23943 0 0 0
58  1  14.58217 5.04884 39.48690 0 0 0
59  2  13.87773 5.33733 40.06721 0 0 0
60  2  14.94339 5.85886 39.12686 0 0 0
61  1  4.50003 3.30581 41.84896 0 0 0
62  2  4.84171 4.15002 41.55435 0 0 0
63  2  3.56161 3.45419 41.96550 0 0 0
64  1  5.28069 13.20242 43.83419 0 0 0
65  2  5.89809 13.87752 43.55263 0 0 0
66  2  4.42000 13.61121 43.74294 0 0 0
67  1  0.57393 12.39240 32.71487 0 0 0
68  2  0.19672 12.88111 31.98336 0 0 0
69  2  0.83123 13.06493 33.34552 0 0 0
70  1  16.19845 14.66636 41.74965 0 0 0
71  2  15.51480 15.33627 41.74132 0 0 0
72  2  16.73788 14.86442 40.98414 0 0 0
73  1  17.65087 4.49432 39.87782 0 0 0
74  2  16.70336 4.52822 40.00937 0 0 0
75  2  17.97586 5.30822 40.26276 0 0 0
76  1  8.18282 0.79404 38.17342 0 0 0
77  2  8.49032 0.23873 37.45697 0 0 0
78  2  7.25289 0.92849 37.99072 0 0 0
79  1  13.73433 16.51077 40.46417 0 0 0
80  2  13.74704 16.10700 39.59639 0 0 0
81  2  13.18185 17.28550 40.36031 0 0 0
82  1  15.02887 13.23239 35.55318 0 0 0
83  2  14.91850 12.28983 35.67813 0 0 0
84  2  15.02569 13.59396 36.43946 0 0 0
85  1  13.13287 11.41375 41.79243 0 0 0
86  2  13.54975 11.19977 40.95777 0 0 0
87  2  13.85685 11.67103 42.36329 0 0 0
88  1  10.57090 8.85892 34.90943 0 0 0
89  2  9.64382 8.79266 35.13828 0 0 0
90  2  10.72338 9.79694 34.79496 0 0 0
91  1  10.55780 5.13062 31.90615 0 0 0
92  2  9.61817 5.29202 31.99140 0 0 0
93  2  10.87613 5.84919 31.35975 0 0 0
94  1  17.07908 9.81248 41.88405 0 0 0
95  2  16.25094 9.88179 41.40907 0 0 0
96  2  17.67413 10.39791 41.41564 0 0 0
97  1  14.60062 10.42095 35.41296 0 0 0
98  2  13.98187 10.08291 34.76559 0 0 0
99  2  14.58307 9.77693 36.12088 0 0 0
100  1  14.04328 6.59941 42.82954 0 0 0
101  2  13.63040 7.42478 43.08354 0 0 0
102  2  13.31088 6.01391 42.63718 0 0 0
103  1  6.17656 9.38540 37.69141 0 0 0
104  2  5.77226 8.67312 37.19600 0 0 0
105  2  6.26287 9.04072 38.58021 0 0 0
106  1  6.64473 13.07215 39.85533 0 0 0
107  2  6.34756 12.46670 39.17611 0 0 0
108  2  7.59471 13.10989 39.74426 0 0 0
109  1  4.88942 6.15972 41.47131 0 0 0
110  2  5.44088 6.26925 40.69664 0 0 0
111  2  5.40377 6.53348 42.18683 0 0 0
112  1  14.73329 16.64534 43.51764 0 0 0
113  2  14.25635 17.45256 43.32490 0 0 0
114  2  14.04947 15.99317 43.67026 0 0 0
115  1  5.73657 12.81032 46.50611 0 0 0
116  2  4.83943 13.03432 46.75345 0 0 0
117  2  5.76186 12.93382 45.55725 0 0 0
118  1  12.77709 9.65964 32.42023 0 0 0
119  2  13.21642 8.82188 32.27402 0 0 0
120  2  13.48994 10.29258 32.50665 0 0 0
121  1  4.56369 9.68166 45.08184 0 0 0
122  2  4.42447 10.55394 45.45058 0 0 0
123  2  3.68183 9.33894 44.93664 0 0 0
124  1  10.88663 14.59924 36.38836 0 0 0
125  2  11.32622 15.34168 35.97390 0 0 0
126  2  10.82532 14.84190 37.31225 0 0 0
127  1  6.36173 15.62383 47.29036 0 0 0
128  2  6.33327 16.02812 46.42320 0 0 0
129  2  6.19823 14.69486 47.12752 0 0 0
130  1  16.35881 0.91392 30.73434 0 0 0
131  2  16.04607 1.00660 31.63424 0 0 0
132  2  17.12006 1.49202 30.68408 0 0 0
133  1  2.87702 8.27990 35.19207 0 0 0
134  2  2.75678 9.00611 34.58020 0 0 0
135  2  2.56711 7.51019 34.71486 0 0 0
136  1  18.31321 16.40654 48.58678 0 0 0
137  2  18.78918 16.88482 49.26568 0 0 0
138  2  18.93393 16.33828 47.86133 0 0 0
139  1  0.51556 11.45141 40.99894 0 0 0
140  2  0.59360 11.58629 40.05451 0 0 0
141  2  1.12973 10.74300 41.19175 0 0 0
142  1  1.76032 13.15143 37.40955 0 0 0
143  2  1.35313 13.29289 36.55491 0 0 0
144  2  2.65162 12.86745 37.20667 0 0 0
145  1  17.71654 13.59782 45.74678 0 0 0
146  2  17.84284 13.35901 44.82850 0 0 0
147  2  17.75867 12.76627 46.21899 0 0 0
148  1  11.57821 17.30062 44.31626 0 0 0
149  2  12.09268 17.21142 45.11850 0 0 0
150  2  10.73512 17.64659 44.60905 0 0 0
151  1  13.55365 17.58615 33.74466 0 0 0
152  2  13.39376 17.29645 34.64284 0 0 0
153  2  13.38832 16.81017 33.20918 0 0 0
154  1  6.03249 17.36601 35.52182 0 0 0
155  2  5.85674 16.44956 35.30860 0 0 0
156  2  5.17806 17.72474 35.76160 0 0 0
157  1  13.25626 15.09491 32.30446 0 0 0
158  2  12.56278 15.09264 31.64469 0 0 0
159  2  13.99855 14.67084 31.87388 0 0 0
160  1  12.82126 16.72118 36.37931 0 0 0
161  2  13.27695 15.94012 36.69317 0 0 0
162  2  13.16051 17.43186 36.92343 0 0 0
163  1  17.56894 5.65107 46.71175 0 0 0
164  2  16.95336 6.15903 46.18330 0 0 0
165  2  17.24858 4.75090 46.65435 0 0 0
166  1  0.57151 12.49283 43.53838 0 0 0
167  2  0.73462 12.02336 42.72032 0 0 0
168  2  1.03676 11.98518 44.20327 0 0 0
169  1  5.34339 1.62340 38.57444 0 0 0
170  2  4.90020 2.40436 38.24289 0 0 0
171  2  5.90189 1.94639 39.28153 0 0 0
172  1  9.63037 4.49026 44.17797 0 0 0
173  2  9.16831 4.69856 44.98996 0 0 0
174  2  9.22818 3.67619 43.87504 0 0 0
175  1  14.63082 5.71115 45.30764 0 0 0
176  2  13.78018 5.41173 45.62854 0 0 0
177  2  14.47100 5.95535 44.39602 0 0 0
178  1  11.72579 7.21133 47.40752 0 0 0
179  2  12.05113 6.37770 47.06774 0 0 0
180  2  12.51382 7.73418 47.55535 0 0 0
181  1  8.45927 1.24447 33.45502 0 0 0
182  2  7.83469 1.24046 34.18035 0 0 0
183  2  8.37228 0.37757 33.05862 0 0 0
184  1  7.38098 2.16814 40.43340 0 0 0
185  2  7.67821 3.07442 40.35260 0 0 0
186  2  7.92953 1.68001 39.81936 0 0 0
187  1  5.13481 6.74676 36.30256 0 0 0
188  2  4.90890 6.53048 37.20723 0 0 0
189  2  4.35406 7.17961 35.95716 0 0 0
190  1  12.36459 6.75310 34.90163 0 0 0
191  2  11.76548 7.47668 34.71799 0 0 0
192  2  12.91255 6.69078 34.11927 0 0 0
193  1  7.57473 7.64532 46.96859 0 0 0
194  2  7.47909 6.70479 46.81863 0 0 0
195  2  8.41793 7.86683 46.57340 0 0 0
196  1  10.97107 5.38945 36.93196 0 0 0
197  2  11.36403 5.70667 36.11883 0 0 0
198  2  11.33276 4.51064 37.04641 0 0 0
199  1  2.70579 4.05669 45.12197 0 0 0
200  2  2.31212 4.90421 45.32925 0 0 0
201  2  2.01763 3.41932 45.31283 0 0 0
202  1  9.28029 4.14018 48.19164 0 0 0
203  2  8.59012 3.94740 48.82625 0 0 0
204  2  10.02352 4.42365 48.72407 0 0 0
205  1  0.00749 1.97953 39.15498 0 0 0
206  2  -0.28120 2.54982 39.86747 0 0 0
207  2  0.75207 1.49998 39.51810 0 0 0
208  1  0.19451 5.92154 30.36525 0 0 0
209  2  0.11198 6.86462 30.50675 0 0 0
210  2  -0.15718 5.77903 29.48648 0 0 0
211  1  11.55659 7.98003 41.02703 0 0 0
212  2  10.82470 8.48871 41.37604 0 0 0
213  2  11.15902 7.16302 40.72591 0 0 0
214  1  7.99433 4.65545 39.43228 0 0 0
215  2  7.99793 4.21444 38.58274 0 0 0
216  2  8.88944 4.97718 39.53947 0 0 0
217  1  3.84456 4.53810 38.39170 0 0 0
218  2  3.50457 5.01562 39.14841 0 0 0
219  2  3.08230 4.08461 38.03181 0 0 0
220  1  8.05634 5.65665 32.42296 0 0 0
221  2  8.17762 5.61530 33.37154 0 0 0
222  2  7.67119 6.51907 32.26763 0 0 0
223  1  12.01918 3.43339 40.43933 0 0 0
224  2  12.03645 3.88426 41.28351 0 0 0
225  2  11.77074 2.53396 40.65267 0 0 0
226  1  7.06849 7.96677 31.82129 0 0 0
227  2  6.50018 7.51859 31.19488 0 0 0
228  2  7.77739 8.32605 31.28780 0 0 0
229  1  15.44625 0.84661 46.27797 0 0 0
230  2  15.77083 0.11558 46.80376 0 0 0
231  2  15.48190 0.52798 45.37607 0 0 0
232  1  2.14541 11.86797 45.69796 0 0 0
233  2  1.76089 11.22734 46.29626 0 0 0
234  2  2.45663 12.57158 46.26744 0 0 0
235  1  8.29512 8.71562 41.17882 0 0 0
236  2  8.66214 8.24148 41.92496 0 0 0
237  2  8.10563 9.58978 41.51966 0 0 0
238  1  1.15917 3.45999 37.30817 0 0 0
239  2  0.87386 3.09556 38.14603 0 0 0
240  2  1.09706 2.72804 36.69449 0 0 0
241  1  6.08506 7.75649 43.49725 0 0 0
242  2  5.78077 8.63569 43.72228 0 0 0
243  2  7.03971 7.81647 43.53299 0 0 0
244  1  4.61324 11.96259 34.09393 0 0 0
245  2  3.83947 11.42235 33.93380 0 0 0
246  2  5.34270 11.44325 33.75571 0 0 0
247  1  15.37204 10.95912 39.88657 0 0 0
248  2  16.09195 11.45465 39.49618 0 0 0
249  2  15.17022 10.28091 39.24196 0 0 0
250  1  10.83303 2.35292 34.02951 0 0 0
251  2  10.01949 1.85424 33.95404 0 0 0
252  2  10.63923 3.19274 33.61314 0 0 0
253  1  10.75392 11.03003 45.77347 0 0 0
254  2  10.68765 10.10960 45.51923 0 0 0
255  2  10.12443 11.12757 46.48793 0 0 0
256  1  13.54787 6.72488 32.32572 0 0 0
257  2  14.43583 7.03661 32.15086 0 0 0
258  2  13.51838 5.85211 31.93378 0 0 0
259  1  4.65698 11.63063 37.73181 0 0 0
260  2  5.17485 10.82745 37.67750 0 0 0
261  2  4.20538 11.56854 38.57349 0 0 0
262  1  9.54393 12.89725 33.00454 0 0 0
263  2  9.88550 13.64148 32.50887 0 0 0
264  2  8.71520 13.21037 33.36702 0 0 0
265  1  2.14143 8.59676 44.64438 0 0 0
266  2  1.78293 9.26215 45.23172 0 0 0
267  2  1.84689 7.76512 45.01564 0 0 0
268  1  5.34275 9.05519 47.52834 0 0 0
269  2  5.04276 9.20090 46.63112 0 0 0
270  2  6.11387 8.49572 47.43568 0 0 0
271  1  10.68559 13.85209 45.52385 0 0 0
272  2  10.70004 12.92018 45.30574 0 0 0
273  2  9.97810 13.93806 46.16283 0 0 0
274  1  15.81930 8.03607 31.79371 0 0 0
275  2  15.73567 8.46749 30.94335 0 0 0
276  2  16.53872 8.49590 32.22639 0 0 0
277  1  16.89671 10.49282 44.87071 0 0 0
278  2  16.17153 11.08570 44.67365 0 0 0
279  2  17.42426 10.48517 44.07204 0 0 0
280  1  16.84802 14.89029 34.52192 0 0 0
281  2  16.20564 14.23586 34.79630 0 0 0
282  2  16.46109 15.29580 33.74599 0 0 0
283  1  12.42667 12.21884 38.36909 0 0 0
284  2  12.77905 11.62165 37.70923 0 0 0
285  2  11.54290 11.89326 38.53992 0 0 0
286  1  8.51300 12.97861 35.77613 0 0 0
287  2  9.20011 13.52553 36.15689 0 0 0
288  2  7.72624 13.52268 35.81109 0 0 0
289  1  0.65224 8.59589 31.26784 0 0 0
290  2  1.52172 8.87837 31.55143 0 0 0
291  2  0.16127 9.40948 31.15272 0 0 0
292  1  7.81572 9.98321 35.38867 0 0 0
293  2  8.27200 10.79373 35.61469 0 0 0
294  2  7.46454 9.66552 36.22052 0 0 0
295  1  10.11898 15.49384 42.61790 0 0 0
296  2  10.76320 15.69978 43.29524 0 0 0
297  2  10.48192 14.73268 42.16498 0 0 0
298  1  3.71690 0.32697 35.86092 0 0 0
299  2  3.58836 0.31876 36.80941 0 0 0
300  2  2.89310 0.66528 35.51002 0 0 0
301  1  11.39219 13.49708 41.33564 0 0 0
302  2  12.03441 12.79639 41.44886 0 0 0
303  2  11.91712 14.27692 41.15533 0 0 0
304  1  15.23776 13.78194 31.05956 0 0 0
305  2  15.01152 13.06498 31.65202 0 0 0
306  2  14.84738 13.53318 30.22173 0 0 0
307  1  13.16595 14.29657 44.53925 0 0 0
308  2  13.50157 14.88324 45.21704 0 0 0
309  2  12.24598 14.16584 44.76903 0 0 0
310  1  1.01936 17.80863 31.83400 0 0 0
311  2  1.37913 18.40756 31.17973 0 0 0
312  2  0.87860 18.35462 32.60751 0 0 0
313  1  0.71629 2.08609 45.32159 0 0 0
314  2  0.00214 2.28578 45.92685 0 0 0
315  2  1.13579 1.31004 45.69307 0 0 0
316  1  14.81939 11.69913 32.72097 0 0 0
317  2  14.53156 12.16040 33.50876 0 0 0
318  2  15.61460 11.23891 32.98940 0 0 0
319  1  1.00355 16.07411 46.30824 0 0 0
320  2  1.11266 15.13359 46.16778 0 0 0
321  2  0.35161 16.33959 45.65962 0 0 0
322  1  8.99481 14.34570 47.70806 0 0 0
323  2  8.67450 13.62663 48.25263 0 0 0
324  2  8.32064 15.02121 47.78166 0 0 0
325  1  7.03623 15.19175 32.65137 0 0 0
326  2  7.02724 15.92472 32.03582 0 0 0
327  2  6.11606 14.94490 32.74407 0 0 0
328  1  2.63689 10.41324 33.39605 0 0 0
329  2  2.02968 11.15313 33.40558 0 0 0
330  2  3.11182 10.50317 32.56987 0 0 0
331  1  12.21017 4.57832 43.07174 0 0 0
332  2  12.57825 3.75784 43.39969 0 0 0
333  2  11.34999 4.63851 43.48730 0 0 0
334  1  15.57637 3.53401 33.88049 0 0 0
335  2  14.94769 3.63858 33.16632 0 0 0
336  2  15.08156 3.75369 34.66988 0 0 0
337  1  10.02219 15.25457 31.31389 0 0 0
338  2  10.12338 15.05097 30.38409 0 0 0
339  2  9.12236 15.00040 31.51867 0 0 0
340  1  7.54477 5.81261 35.29628 0 0 0
341  2  6.83639 6.28124 35.73764 0 0 0
342  2  7.82922 5.15481 35.93080 0 0 0
343  1  9.17037 7.23228 43.29553 0 0 0
344  2  9.66889 7.70686 43.96072 0 0 0
345  2  9.31266 6.30863 43.50254 0 0 0
346  1  11.57632 2.53767 36.73586 0 0 0
347  2  11.45310 2.55629 35.78681 0 0 0
348  2  12.52477 2.58557 36.85570 0 0 0
349  1  8.66400 17.77320 36.00866 0 0 0
350  2  8.91815 17.73534 35.08659 0 0 0
351  2  7.71524 17.64654 36.00148 0 0 0
352  1  5.74828 4.12111 32.67135 0 0 0
353  2  6.59733 4.55813 32.60537 0 0 0
354  2  5.38140 4.43314 33.49856 0 0 0
355  1  16.37705 3.44907 44.13837 0 0 0
356  2  15.87441 4.18961 44.47775 0 0 0
357  2  17.19272 3.83747 43.82205 0 0 0
358  1  14.66925 8.69239 37.58451 0 0 0
359  2  13.72827 8.70741 37.75928 0 0 0
360  2  14.98366 7.90599 38.03054 0 0 0
361  1  4.64742 10.37435 31.14490 0 0 0
362  2  5.41375 10.26249 31.70745 0 0 0
363  2  4.72489 9.67815 30.49258 0 0 0
364  1  3.34209 7.80686 31.82819 0 0 0
365  2  3.42245 6.85961 31.93993 0 0 0
366  2  4.23407 8.13755 31.93426 0 0 0
367  1  16.67181 15.86328 39.25993 0 0 0
368  2  16.79655 16.68639 39.73232 0 0 0
369  2  17.53837 15.65235 38.91235 0 0 0
370  1  4.14357 17.95640 38.93165 0 0 0
371  2  4.87981 17.40794 39.20250 0 0 0
372  2  4.52766 18.82200 38.79225 0 0 0
373  1  1.02811 14.02375 34.80580 0 0 0
374  2  0.10209 14.26587 34.79634 0 0 0
375  2  1.49376 14.85118 34.68427 0 0 0
376  1  3.14939 17.14100 48.12021 0 0 0
377  2  3.95067 17.46221 48.53375 0 0 0
378  2  2.63458 16.78056 48.84220 0 0 0
379  1  7.25380 17.12943 30.75420 0 0 0
380  2  8.04666 17.41831 30.30238 0 0 0
381  2  6.73423 16.69864 30.07545 0 0 0
382  1  11.98586 13.24899 48.06775 0 0 0
383  2  11.37967 13.27215 47.32732 0 0 0
384  2  11.68127 12.51729 48.60447 0 0 0
385  1  13.41589 16.97702 46.67869 0 0 0
386  2  14.36807 16.89282 46.62871 0 0 0
387  2  13.26872 17.64119 47.35207 0 0 0
388  1  16.30681 16.35644 32.17788 0 0 0
389  2  16.02096 15.94295 31.36330 0 0 0
390  2  16.10877 17.28521 32.05793 0 0 0
391  1  0.86917 9.62835 47.06381 0 0 0
392  2  1.37308 9.04908 47.63543 0 0 0
393  2  0.12992 9.91237 47.60145 0 0 0
394  1  7.77154 12.34977 30.61844 0 0 0
395  2  7.66660 11.73500 31.34458 0 0 0
396  2  7.60396 11.82636 29.83474 0 0 0
397  1  7.92297 11.03545 46.59736 0 0 0
398  2  7.15754 11.60395 46.51283 0 0 0
399  2  8.10456 10.74307 45.70419 0 0 0
400  1  11.01181 11.41177 31.22264 0 0 0
401  2  10.46282 11.85870 31.86691 0 0 0
402  2  11.63374 10.90670 31.74641 0 0 0
403  1  15.06530 12.76598 47.15486 0 0 0
404  2  15.80625 13.10356 46.65161 0 0 0
405  2  14.30257 12.93519 46.60184 0 0 0
406  1  2.90148 7.77131 47.95882 0 0 0
407  2  2.94202 7.47270 48.86734 0 0 0
408  2  3.75603 8.17207 47.79957 0 0 0
409  1  6.67932 10.37086 33.11917 0 0 0
410  2  7.10096 10.20485 33.96231 0 0 0
411  2  6.80441 9.56089 32.62468 0 0 0
412  1  4.84206 6.35052 45.92627 0 0 0
413  2  4.31171 5.85961 45.29860 0 0 0
414  2  5.51087 6.77894 45.39206 0 0 0
415  1  9.19209 9.39462 30.36688 0 0 0
416  2  9.71265 8.67953 30.00099 0 0 0
417  2  9.83893 10.03321 30.66693 0 0 0
418  1  13.73987 10.81746 45.69039 0 0 0
419  2  14.15397 10.97197 46.53943 0 0 0
420  2  12.80497 10.94299 45.85296 0 0 0
421  1  14.21209 8.15708 47.69430 0 0 0
422  2  14.79416 7.40231 47.60635 0 0 0
423  2  14.38826 8.68782 46.91745 0 0 0
424  1  5.32929 3.31676 46.00600 0 0 0
425  2  5.23498 2.69883 45.28108 0 0 0
426  2  4.74903 4.04338 45.77899 0 0 0
427  1  8.09544 1.87408 43.03873 0 0 0
428  2  7.64717 1.89651 42.19329 0 0 0
429  2  7.46196 1.47598 43.63576 0 0 0
430  1  8.50139 10.76951 43.65998 0 0 0
431  2  8.92020 11.61279 43.48760 0 0 0
432  2  7.58226 10.90672 43.43066 0 0 0
433  1  10.83778 8.50113 45.04376 0 0 0
434  2  10.95740 7.90524 45.78325 0 0 0
435  2  11.69718 8.53810 44.62389 0 0 0
436  1  13.17657 9.05485 43.62001 0 0 0
437  2  12.65009 9.57911 43.01653 0 0 0
438  2  13.51971 9.68759 44.25099 0 0 0
439  1  5.57521 6.44419 30.06498 0 0 0
440  2  5.37412 5.58092 30.42632 0 0 0
441  2  5.40442 6.35752 29.12714 0 0 0
442  1  6.35213 17.07481 44.77575 0 0 0
443  2  5.81424 17.79942 44.45662 0 0 0
444  2  6.60553 16.59785 43.98549 0 0 0
445  1  7.60466 5.04327 46.30134 0 0 0
446  2  8.19463 4.73485 46.98913 0 0 0
447  2  6.78668 4.57124 46.45733 0 0 0
448  1  12.42400 4.65985 46.53465 0 0 0
449  2  11.73555 3.99800 46.46965 0 0 0
450  2  13.14460 4.21367 46.97949 0 0 0
451  1  13.05404 1.25501 32.59367 0 0 0
452  2  13.33427 0.41180 32.94961 0 0 0
453  2  12.28062 1.48732 33.10755 0 0 0
454  1  4.37349 3.54425 30.05277 0 0 0
455  2  4.67608 3.55099 29.14469 0 0 0
456  2  5.11295 3.19403 30.54954 0 0 0
457  1  9.20836 18.30993 45.03442 0 0 0
458  2  9.13423 19.21345 45.34165 0 0 0
459  2  8.30624 17.99112 45.00662 0 0 0
460  1  7.59198 2.48771 31.03839 0 0 0
461  2  7.24418 1.81011 30.45864 0 0 0
462  2  7.79326 2.02666 31.85273 0 0 0
463  1  9.75689 17.47579 32.65705 0 0 0
464  2  10.65197 17.81428 32.67893 0 0 0
465  2  9.78865 16.75373 32.02948 0 0 0
466  1  3.39650 12.84849 30.88575 0 0 0
467  2  3.83399 13.39146 31.54151 0 0 0
468  2  3.88128 12.02319 30.89539 0 0 0
469  1  0.61108 15.63739 38.33778 0 0 0
470  2  0.94139 14.76950 38.10564 0 0 0
471  2  1.04018 15.84325 39.16827 0 0 0
472  1  5.20728 13.96829 35.99798 0 0 0
473  2  4.90683 13.84479 36.89837 0 0 0
474  2  5.10103 13.10915 35.58955 0 0 0
475  1  1.10011 16.50445 41.07594 0 0 0
476  2  0.66320 16.68453 41.90836 0 0 0
477  2  1.66787 17.26191 40.93411 0 0 0
478  1  16.73632 16.00615 45.36367 0 0 0
479  2  16.13652 16.06541 44.62006 0 0 0
480  2  16.86571 15.06665 45.49336 0 0 0
481  1  17.97647 13.74793 30.70064 0 0 0
482  2  17.14576 13.81560 31.17137 0 0 0
483  2  18.15365 14.63835 30.39733 0 0 0
484  1  17.43211 10.49268 33.20406 0 0 0
485  2  18.19401 11.06235 33.31003 0 0 0
486  2  17.44755 9.92540 33.97489 0 0 0
487  1  0.93255 9.01648 37.43483 0 0 0
488  2  0.27743 8.74764 36.79080 0 0 0
489  2  1.77034 8.90692 36.98503 0 0 0
490  1  18.43811 11.34769 38.04826 0 0 0
491  2  18.80899 10.56442 37.64185 0 0 0
492  2  19.07830 12.03660 37.86999 0 0 0
493  1  15.42149 12.73135 43.46129 0 0 0
494  2  14.60747 13.16107 43.72387 0 0 0
495  2  15.82891 13.34319 42.84819 0 0 0
496  1  17.48403 10.78612 30.36132 0 0 0
497  2  17.75892 11.69401 30.23324 0 0 0
498  2  17.29511 10.72237 31.29751 0 0 0
499  1  13.88159 3.81060 31.65668 0 0 0
500  2  14.30008 3.62370 30.81634 0 0 0
501  2  13.57520 2.95851 31.96697 0 0 0
502  1  17.38057 8.72302 35.35426 0 0 0
503  2  17.00493 7.95581 34.92239 0 0 0
504  2  16.65088 9.10529 35.84175 0 0 0
505  1  1.97014 9.40173 41.97516 0 0 0
506  2  2.33745 9.31447 42.85477 0 0 0
507  2  1.40122 8.63839 41.87585 0 0 0
508  1  16.77053 7.87017 44.98821 0 0 0
509  2  16.53914 7.64145 44.08801 0 0 0
510  2  17.03098 8.79013 44.94270 0 0 0
511  1  1.52174 6.31264 45.88101 0 0 0
512  2  0.62735 6.27932 46.22038 0 0 0
513  2  2.06150 6.51132 46.64613 0 0 0
514  1  15.20933 3.09581 47.76618 0 0 0
515  2  16.08635 3.10415 48.14958 0 0 0
516  2  15.22142 2.35890 47.15542 0 0 0
517  1  0.14636 6.22637 33.37736 0 0 0
518  2  -0.75724 6.48939 33.20253 0 0 0
519  2  0.63042 6.49749 32.59736 0 0 0
520  1  16.65566 6.94877 38.65498 0 0 0
521  2  17.17941 6.45503 38.02400 0 0 0
522  2  17.24160 7.08380 39.39974 0 0 0
523  1  16.83463 7.03275 42.17694 0 0 0
524  2  15.88490 6.99911 42.29144 0 0 0
525  2  17.01593 7.94277 41.94191 0 0 0
526  1  2.68908 5.28292 31.28680 0 0 0
527  2  3.39825 4.86124 30.80153 0 0 0
528  2  1.97307 5.35045 30.65514 0 0 0
529  1  2.33649 1.33686 30.32707 0 0 0
530  2  3.05931 1.87775 30.64519 0 0 0
531  2  2.60895 1.06320 29.45122 0 0 0
532  1  16.14566 6.20610 34.59422 0 0 0
533  2  16.64157 5.97319 35.37911 0 0 0
534  2  15.94727 5.36729 34.17799 0 0 0
535  1  2.02571 0.58747 40.22933 0 0 0
536  2  2.67333 0.03721 39.78884 0 0 0
537  2  2.44590 0.84179 41.05091 0 0 0
538  1  17.57437 4.84220 37.12799 0 0 0
539  2  17.46430 4.68780 38.06622 0 0 0
540  2  18.33513 4.31429 36.88553 0 0 0
541  1  15.92095 0.78161 43.58629 0 0 0
542  2  16.55817 1.39502 43.95221 0 0 0
543  2  16.06844 0.81768 42.64121 0 0 0
544  1  18.46340 2.67299 30.36861 0 0 0
545  2  19.38833 2.54111 30.16043 0 0 0
546  2  18.44098 2.75227 31.32225 0 0 0
547  1  18.53725 3.44406 32.99428 0 0 0
548  2  17.74240 3.37857 33.52357 0 0 0
549  2  18.74158 4.37912 32.98281 0 0 0
550  1  15.47909 17.48321 36.98812 0 0 0
551  2  16.07500 17.16167 36.31156 0 0 0
552  2  15.73691 17.01039 37.77944 0 0 0
553  1  1.77891 0.74304 42.97186 0 0 0
554  2  1.43039 1.19942 43.73768 0 0 0
555  2  1.44768 -0.15125 43.05410 0 0 0
556  1  3.38535 13.91500 47.13718 0 0 0
557  2  3.34231 13.54429 48.01862 0 0 0
558  2  3.51645 14.85276 47.27736 0 0 0
559  1  7.08595 15.47096 42.73815 0 0 0
560  2  6.84509 15.73842 41.85120 0 0 0
561  2  8.02622 15.64153 42.79324 0 0 0
562  1  9.29139 1.93423 46.49380 0 0 0
563  2  9.23028 2.52641 47.24334 0 0 0
564  2  10.23143 1.82683 46.34883 0 0 0
565  1  11.92885 1.59124 46.13303 0 0 0
566  2  12.54289 1.90916 45.47114 0 0 0
567  2  12.47381 1.10609 46.75262 0 0 0
568  1  18.34637 17.49040 43.53921 0 0 0
569  2  17.85220 17.88729 42.82193 0 0 0
570  2  17.73770 16.86532 43.93294 0 0 0
571  1  2.45098 0.27066 46.24694 0 0 0
572  2  2.99928 0.08947 45.48355 0 0 0
573  2  2.51651 -0.51993 46.78257 0 0 0
574  1  3.22415 16.86123 44.25696 0 0 0
575  2  2.63018 16.72970 44.99596 0 0 0
576  2  3.21654 16.02504 43.79117 0 0 0
577  1  12.66965 0.15445 42.45996 0 0 0
578  2  11.79564 0.48796 42.25725 0 0 0
579  2  12.56073 -0.31823 43.28515 0 0 0
580  1  13.57685 2.36154 43.84413 0 0 0
581  2  13.24819 1.54671 43.46430 0 0 0
582  2  14.52508 2.31852 43.72070 0 0 0
583  1  16.03031 18.13274 40.81789 0 0 0
584  2  15.57061 18.88432 40.44369 0 0 0
585  2  15.40156 17.41339 40.75937 0 0 0
586  1  2.85538 14.22706 43.20776 0 0 0
587  2  2.12878 13.60759 43.14036 0 0 0
588  2  2.91629 14.62113 42.33757 0 0 0
589  1  6.45989 16.44156 39.99270 0 0 0
590  2  6.97639 15.83030 39.46753 0 0 0
591  2  7.10962 16.94444 40.48380 0 0 0
592  1  9.19944 17.33241 40.81960 0 0 0
593  2  9.48722 17.07784 39.94290 0 0 0
594  2  9.71176 16.78015 41.41016 0 0 0
595  1  10.41714 1.07143 41.39925 0 0 0
596  2  9.63432 1.54598 41.67893 0 0 0
597  2  10.12343 0.16692 41.29057 0 0 0
598  1  14.96924 1.77374 39.44416 0 0 0
599  2  15.41005 1.71825 38.59632 0 0 0
600  2  14.70000 2.68954 39.51518 0 0 0
601  1  16.83310 1.40527 37.45504 0 0 0
602  2  16.77194 0.46139 37.30814 0 0 0
603  2  17.61230 1.51328 38.00039 0 0 0
604  1  1.13838 17.54450 36.41744 0 0 0
605  2  0.97058 16.91157 37.11563 0 0 0
606  2  0.27183 17.75044 36.06686 0 0 0
607  1  1.76118 1.37618 33.92062 0 0 0
608  2  2.51911 1.48907 33.34703 0 0 0
609  2  1.29889 2.21310 33.87497 0 0 0
610  1  8.30256 3.49011 36.91085 0 0 0
611  2  7.49001 3.11580 36.57044 0 0 0
612  2  8.80672 2.73462 37.21297 0 0 0
613  1  12.80506 0.15435 38.14916 0 0 0
614  2  13.40799 0.72637 38.62401 0 0 0
615  2  12.06436 0.71830 37.92655 0 0 0
616  1  15.94852 0.55651 33.42319 0 0 0
617  2  16.14358 1.45485 33.68993 0 0 0
618  2  15.16150 0.32522 33.91648 0 0 0
619  1  2.74465 16.23783 33.86245 0 0 0
620  2  2.21941 16.61863 33.15865 0 0 0
621  2  2.66910 16.86290 34.58342 0 0 0
622  1  4.13369 1.90259 32.46082 0 0 0
623  2  4.66297 1.11557 32.33161 0 0 0
624  2  4.76652 2.58171 32.69437 0 0 0
625  1  6.32748 1.64010 35.51536 0 0 0
626  2  5.69775 0.93883 35.68237 0 0 0
627  2  5.78799 2.40051 35.29867 0 0 0
628  1  9.26667 18.25402 48.18642 0 0 0
629  2  10.19340 18.01845 48.23002 0 0 0
630  2  9.25171 19.08122 47.70502 0 0 0
631  1  17.50118 17.79658 35.18384 0 0 0
632  2  17.67640 17.11035 34.53994 0 0 0
633  2  16.80333 18.32129 34.79151 0 0 0
634  1  6.45303 0.91850 47.95061 0 0 0
635  2  6.17146 1.42186 47.18669 0 0 0
636  2  6.83500 0.12067 47.58482 0 0 0
637  1  5.34394 18.18606 32.73738 0 0 0
638  2  6.07582 17.90199 32.18976 0 0 0
639  2  5.60331 17.94739 33.62731 0 0 0
640  1  4.50542 14.30254 32.74201 0 0 0
641  2  3.87631 14.77105 33.29059 0 0 0
642  2  4.62020 13.45746 33.17663 0 0 0
643  1  13.05458 0.33386 48.52865 0 0 0
644  2  12.94112 0.65332 49.42381 0 0 0
645  2  13.87155 0.73511 48.23238 0 0 0
646  1  15.83443 17.48101 48.01052 0 0 0
647  2  16.62696 16.98593 47.80312 0 0 0
648  2  16.12774 18.16002 48.61808 0 0 0
649  1  11.96039 8.35310 56.44083 0 0 0
650  2  11.87980 7.43856 56.17000 0 0 0
651  2  11.54684 8.84981 55.73480 0 0 0
652  1  10.09220 10.13101 58.32175 0 0 0
653  2  9.31641 9.65105 58.61161 0 0 0
654  2  10.74349 9.45157 58.14737 0 0 0
655  1  4.10878 10.44299 59.19933 0 0 0
656  2  3.27727 10.18786 59.59898 0 0 0
657  2  4.71688 10.51406 59.93512 0 0 0
658  1  14.11294 14.53702 57.10167 0 0 0
659  2  13.65109 13.76575 57.43038 0 0 0
660  2  14.92550 14.56363 57.60691 0 0 0
661  1  4.08891 14.47700 59.39513 0 0 0
662  2  4.39171 13.58677 59.21615 0 0 0
663  2  4.83327 15.03402 59.16736 0 0 0
664  1  2.51798 5.40318 52.98357 0 0 0
665  2  1.62965 5.74477 52.88156 0 0 0
666  2  2.80209 5.20321 52.09165 0 0 0
667  1  0.48128 8.00374 58.86754 0 0 0
668  2  1.05289 7.23596 58.86790 0 0 0
669  2  0.48143 8.30262 57.95820 0 0 0
670  1  10.33927 16.82283 56.72207 0 0 0
671  2  9.72042 17.27858 56.15151 0 0 0
672  2  11.19445 16.97797 56.32104 0 0 0
673  1  9.53310 12.80672 58.32877 0 0 0
674  2  9.46392 11.86572 58.16768 0 0 0
675  2  10.29508 12.89687 58.90103 0 0 0
676  1  1.72376 3.41218 60.65443 0 0 0
677  2  1.54405 2.51475 60.93471 0 0 0
678  2  1.32177 3.95936 61.32913 0 0 0
679  1  10.56361 5.61376 58.55566 0 0 0
680  2  10.94010 4.74095 58.44303 0 0 0
681  2  10.46556 5.94963 57.66471 0 0 0
682  1  4.69411 3.98633 54.01741 0 0 0
683  2  4.80079 4.88670 54.32428 0 0 0
684  2  3.78335 3.93812 53.72687 0 0 0
685  1  14.34603 3.10881 55.48850 0 0 0
686  2  15.16699 2.61846 55.53105 0 0 0
687  2  14.37943 3.69857 56.24168 0 0 0
688  1  2.34243 5.90823 59.26267 0 0 0
689  2  3.02344 6.17206 59.88141 0 0 0
690  2  2.02724 5.06831 59.59647 0 0 0
691  1  6.53489 6.95496 58.34993 0 0 0
692  2  7.04271 7.45306 58.99043 0 0 0
693  2  7.06621 6.17848 58.17386 0 0 0
694  1  18.63598 5.12548 62.05286 0 0 0
695  2  17.93120 5.51365 61.53437 0 0 0
696  2  18.90177 5.82051 62.65495 0 0 0
697  1  4.81850 1.59482 62.61627 0 0 0
698  2  4.82034 2.11206 61.81086 0 0 0
699  2  3.98893 1.11784 62.59326 0 0 0
700  1  11.20561 11.70675 54.11526 0 0 0
701  2  10.58733 12.17169 53.55153 0 0 0
702  2  11.71793 12.39950 54.53221 0 0 0
703  1  6.06878 11.23434 60.79362 0 0 0
704  2  5.73572 11.86123 61.43572 0 0 0
705  2  6.24545 11.76052 60.01378 0 0 0
706  1  14.58217 5.04884 58.26125 0 0 0
707  2  13.87773 5.33733 58.84156 0 0 0
708  2  14.94339 5.85886 57.90121 0 0 0
709  1  4.50003 3.30581 60.62331 0 0 0
710  2  4.84171 4.15002 60.32870 0 0 0
711  2  3.56161 3.45419 60.73985 0 0 0
712  1  5.28069 13.20242 62.60854 0 0 0
713  2  5.89809 13.87752 62.32698 0 0 0
714  2  4.42000 13.61121 62.51729 0 0 0
715  1  0.57393 12.39240 51.48922 0 0 0
716  2  0.19672 12.88111 50.75771 0 0 0
717  2  0.83123 13.06493 52.11987 0 0 0
718  1  16.19845 14.66636 60.52400 0 0 0
719  2  15.51480 15.33627 60.51567 0 0 0
720  2  16.73788 14.86442 59.75849 0 0 0
721  1  17.65087 4.49432 58.65217 0 0 0
722  2  16.70336 4.52822 58.78372 0 0 0
723  2  17.97586 5.30822 59.03711 0 0 0
724  1  8.18282 0.79404 56.94777 0 0 0
725  2  8.49032 0.23873 56.23132 0 0 0
726  2  7.25289 0.92849 56.76507 0 0 0
727  1  13.73433 16.51077 59.23852 0 0 0
728  2  13.74704 16.10700 58.37074 0 0 0
729  2  13.18185 17.28550 59.13466 0 0 0
730  1  15.02887 13.23239 54.32753 0 0 0
731  2  14.91850 12.28983 54.45248 0 0 0
732  2  15.02569 13.59396 55.21381 0 0 0
733  1  13.13287 11.41375 60.56678 0 0 0
734  2  13.54975 11.19977 59.73212 0 0 0
735  2  13.85685 11.67103 61.13764 0 0 0
736  1  10.57090 8.85892 53.68378 0 0 0
737  2  9.64382 8.79266 53.91263 0 0 0
738  2  10.72338 9.79694 53.56931 0 0 0
739  1  10.55780 5.13062 50.68050 0 0 0
740  2  9.61817 5.29202 50.76575 0 0 0
741  2  10.87613 5.84919 50.13410 0 0 0
742  1  17.07908 9.81248 60.65840 0 0 0
743  2  16.25094 9.88179 60.18342 0 0 0
744  2  17.67413 10.39791 60.18999 0 0 0
745  1  14.60062 10.42095 54.18731 0 0 0
746  2  13.98187 10.08291 53.53994 0 0 0