Created by /home/tpascal/scripts/createLammpsInput.pl on Mon Nov  7 14:10:12 2022

        1980 atoms
        1327 bonds
         681 angles
          28 dihedrals
           7 impropers

           6 atom types
           4 bond types
           4 angle types
           2 dihedral types
           1 improper types

		   0.000000  18.774350 xlo xhi
		   0.000000  18.774350 ylo yhi
		  20.000000  76.323000 zlo zhi

Masses

    1 1.5995E+01 # OW     
    2 1.0080E+00 # HW     
    3 1.2011E+01 # C_CA   
    4 1.0080E+00 # H_CA   
    5 1.5999E+01 # O_2CA  
    6 1.5999E+01 # O_3CA  


Bond Coeffs

    1   0.9572   556.85 -1419.97   2112.2 # OW HW 
    2   1.2525      605 -1542.75  2294.84 # C_CA O_2CA 
    3    1.454    331.6  -845.58   1257.8 # C_CA O_3CA 
    4   0.9737    514.4 -1311.72  1951.18 # H_CA O_3CA 

Angle Coeffs

    1        0        0    108.5     48.7 -39.0643  8.95287 -6.41202  11.5463 # HW OW HW 
    2        0        0    108.7     49.6 -39.7862  9.11832 -6.53052  11.7597 # C_CA O_3CA H_CA 
    3        0        0   113.48     92.3 -74.0376  16.9682 -12.1526  21.8834 # O_2CA C_CA O_3CA 
    4        0        0   133.04    102.5 -82.2194  18.8433 -13.4955  24.3017 # O_3CA C_CA O_3CA 

Dihedral Coeffs

    1        6   -5.867        1        0    4.857        2      180    2.911        3        0    0.562        4      180    2.499        5        0    0.377        6      180 # H_CA O_3CA C_CA O_2CA 
    2        6    2.417        1        0    4.859        2      180    1.415        3        0    0.562        4      180    2.103        5        0    0.377        6      180 # H_CA O_3CA C_CA O_3CA 

Improper Coeffs

    1      242 # C_CA O_2CA O_3CA O_3CA 

UreyBradley Coeffs

    1        0        0  # HW OW HW 
    2        0        0  # C_CA O_3CA H_CA 
    3        0        0  # O_2CA C_CA O_3CA 
    4        0        0  # O_3CA C_CA O_3CA 

BondAngle Coeffs

    1        0        0        0        0  # HW OW HW 
    2        0        0        0        0  # C_CA O_3CA H_CA 
    3     18.7     18.7   1.2525    1.454  # O_2CA C_CA O_3CA 
    4     18.7     18.7    1.454    1.454  # O_3CA C_CA O_3CA 

Atoms

       1        1        1  0.00000000   12.84110    7.33757   26.96520    0    0    0
       2        1        2  0.00000000   12.19760    6.99139   26.28250    0    0    0
       3        1        2  0.00000000   13.64490    7.71428   26.50480    0    0    0
       4        2        1  0.00000000   10.89620    9.46135   28.41430    0    0    0
       5        2        2  0.00000000   11.02160    8.63043   28.95640    0    0    0
       6        2        2  0.00000000   11.67330   10.07390   28.55860    0    0    0
       7        3        1  0.00000000    3.75250    9.94409   28.47840    0    0    0
       8        3        2  0.00000000    2.96762    9.33852   28.60960    0    0    0
       9        3        2  0.00000000    4.59256    9.45786   28.71890    0    0    0
      10        4        1  0.00000000   13.47030   14.83220   27.44910    0    0    0
      11        4        2  0.00000000   13.02810   14.92820   28.34090    0    0    0
      12        4        2  0.00000000   13.68000   13.86870   27.28290    0    0    0
      13        5        1  0.00000000    1.33463   16.17420   28.54400    0    0    0
      14        5        2  0.00000000    1.54792   17.03460   28.08120    0    0    0
      15        5        2  0.00000000    1.71758   16.18870   29.46770    0    0    0
      16        6        1  0.00000000   -2.03411   10.89380   30.86070    0    0    0
      17        6        2  0.00000000   -2.93610   10.48960   30.70890    0    0    0
      18        6        2  0.00000000   -1.61450   10.47880   31.66800    0    0    0
      19        7        1  0.00000000   10.14300   16.59130   25.97980    0    0    0
      20        7        2  0.00000000    9.47311   17.04370   25.39110    0    0    0
      21        7        2  0.00000000   10.74750   17.27720   26.38510    0    0    0
      22        8        1  0.00000000   10.85730   12.87670   27.94000    0    0    0
      23        8        2  0.00000000   11.61590   13.18860   28.51200    0    0    0
      24        8        2  0.00000000   10.65930   11.91770   28.14290    0    0    0
      25        9        1  0.00000000    1.19793    0.53053   35.54740    0    0    0
      26        9        2  0.00000000    0.80609   -0.33077   35.87080    0    0    0
      27        9        2  0.00000000    2.07609    0.35143   35.10380    0    0    0
      28       10        1  0.00000000   11.77330    7.18586   29.70210    0    0    0
      29       10        2  0.00000000   12.22550    7.40834   28.83840    0    0    0
      30       10        2  0.00000000   11.68400    6.19336   29.78560    0    0    0
      31       11        1  0.00000000   18.84830    1.30164   26.31130    0    0    0
      32       11        2  0.00000000   19.78300    0.95289   26.24190    0    0    0
      33       11        2  0.00000000   18.20440    0.53709   26.28340    0    0    0
      34       12        1  0.00000000    3.60315    5.89829   29.61540    0    0    0
      35       12        2  0.00000000    3.23986    6.77778   29.30800    0    0    0
      36       12        2  0.00000000    2.97798    5.49457   30.28340    0    0    0
      37       13        1  0.00000000    6.24440    4.73031   30.02540    0    0    0
      38       13        2  0.00000000    7.05718    5.19031   29.66790    0    0    0
      39       13        2  0.00000000    5.46083    5.34940   29.97290    0    0    0
      40       14        1  0.00000000    3.62330   -0.07674   33.45600    0    0    0
      41       14        2  0.00000000    3.88572   -0.82215   32.84320    0    0    0
      42       14        2  0.00000000    4.42317    0.49029   33.65270    0    0    0
      43       15        1  0.00000000   12.63490   11.16160   25.09820    0    0    0
      44       15        2  0.00000000   12.09590   11.99740   24.99370    0    0    0
      45       15        2  0.00000000   12.02900   10.40150   25.33310    0    0    0
      46       16        1  0.00000000    6.09135   11.48840   31.14260    0    0    0
      47       16        2  0.00000000    6.33748   11.00980   31.98540    0    0    0
      48       16        2  0.00000000    6.58845   11.08640   30.37370    0    0    0
      49       17        1  0.00000000   17.71270    4.33415   29.30420    0    0    0
      50       17        2  0.00000000   17.51240    3.35562   29.35270    0    0    0
      51       17        2  0.00000000   16.89070    4.85452   29.53550    0    0    0
      52       18        1  0.00000000    6.52837    1.95622   30.21660    0    0    0
      53       18        2  0.00000000    5.66371    1.64093   29.82550    0    0    0
      54       18        2  0.00000000    6.44804    2.92047   30.46910    0    0    0
      55       19        1  0.00000000    7.51495   13.45390   32.50480    0    0    0
      56       19        2  0.00000000    6.94135   12.93100   31.87430    0    0    0
      57       19        2  0.00000000    7.99420   14.17270   32.00130    0    0    0
      58       20        1  0.00000000   -1.64608   12.48300   23.89420    0    0    0
      59       20        2  0.00000000   -1.02438   11.72430   23.69960    0    0    0
      60       20        2  0.00000000   -1.23135   13.34030   23.58930    0    0    0
      61       21        1  0.00000000   17.64300   15.69630   30.39330    0    0    0
      62       21        2  0.00000000   17.83770   14.73340   30.57980    0    0    0
      63       21        2  0.00000000   17.17930   15.77780   29.51110    0    0    0
      64       22        1  0.00000000   20.54470    4.21421   30.79650    0    0    0
      65       22        2  0.00000000   19.69780    4.21023   30.26490    0    0    0
      66       22        2  0.00000000   20.60540    3.37251   31.33310    0    0    0
      67       23        1  0.00000000    8.73892    1.08045   26.76650    0    0    0
      68       23        2  0.00000000    9.72014    0.88810   26.78080    0    0    0
      69       23        2  0.00000000    8.26978    0.46742   27.40220    0    0    0
      70       24        1  0.00000000   11.61100   15.99530   31.11410    0    0    0
      71       24        2  0.00000000   10.94840   16.60290   30.67600    0    0    0
      72       24        2  0.00000000   11.35510   15.85760   32.07090    0    0    0
      73       25        1  0.00000000   14.48860   12.16620   27.23830    0    0    0
      74       25        2  0.00000000   14.03080   11.85350   26.40600    0    0    0
      75       25        2  0.00000000   15.40010   12.50770   27.00910    0    0    0
      76       26        1  0.00000000   10.94570   11.04300   32.62210    0    0    0
      77       26        2  0.00000000   11.28560   10.21180   32.18200    0    0    0
      78       26        2  0.00000000   10.67210   11.70270   31.92210    0    0    0
      79       27        1  0.00000000   11.02830    6.76122   24.81330    0    0    0
      80       27        2  0.00000000   10.32110    6.13978   25.15050    0    0    0
      81       27        2  0.00000000   10.72920    7.70693   24.94040    0    0    0
      82       28        1  0.00000000   14.67580    9.22698   30.56810    0    0    0
      83       28        2  0.00000000   14.15580    8.90979   31.36120    0    0    0
      84       28        2  0.00000000   14.60310    8.55481   29.83130    0    0    0
      85       29        1  0.00000000   15.11860    8.57904   24.83770    0    0    0
      86       29        2  0.00000000   14.98730    9.43089   24.33060    0    0    0
      87       29        2  0.00000000   14.56440    7.85642   24.42460    0    0    0
      88       30        1  0.00000000   16.99430    6.97664   32.62060    0    0    0
      89       30        2  0.00000000   16.95130    6.70653   31.65870    0    0    0
      90       30        2  0.00000000   17.11300    7.96757   32.68360    0    0    0
      91       31        1  0.00000000    5.72389    7.91354   28.63380    0    0    0
      92       31        2  0.00000000    6.12049    7.77502   27.72630    0    0    0
      93       31        2  0.00000000    6.45648    8.05388   29.29980    0    0    0
      94       32        1  0.00000000    5.75164   14.83250   29.13650    0    0    0
      95       32        2  0.00000000    5.70761   14.45620   28.21100    0    0    0
      96       32        2  0.00000000    5.00431   14.45720   29.68480    0    0    0
      97       33        1  0.00000000    7.19568    4.63396   32.58760    0    0    0
      98       33        2  0.00000000    6.79257    4.82274   31.69220    0    0    0
      99       33        2  0.00000000    7.88096    3.91110   32.49900    0    0    0
     100       34        1  0.00000000   12.90770   19.07190   31.70790    0    0    0
     101       34        2  0.00000000   12.88340   19.98950   32.10460    0    0    0
     102       34        2  0.00000000   13.22720   18.41980   32.39540    0    0    0
     103       35        1  0.00000000    6.70933   10.56840   33.58500    0    0    0
     104       35        2  0.00000000    7.22669   11.41770   33.68950    0    0    0
     105       35        2  0.00000000    6.96088    9.93291   34.31500    0    0    0
     106       36        1  0.00000000   13.53210    6.59517   23.51150    0    0    0
     107       36        2  0.00000000   12.58480    6.61688   23.83090    0    0    0
     108       36        2  0.00000000   13.84180    5.64626   23.45100    0    0    0
     109       37        1  0.00000000    3.69866   10.20470   33.73410    0    0    0
     110       37        2  0.00000000    3.66056    9.45442   33.07410    0    0    0
     111       37        2  0.00000000    4.64403   10.51610   33.83050    0    0    0
     112       38        1  0.00000000   10.82200   13.23910   24.80660    0    0    0
     113       38        2  0.00000000   11.38370   14.03470   24.57950    0    0    0
     114       38        2  0.00000000   10.26450   13.44340   25.61130    0    0    0
     115       39        1  0.00000000    6.32199   13.11870   37.05550    0    0    0
     116       39        2  0.00000000    6.79851   12.24100   37.00540    0    0    0
     117       39        2  0.00000000    6.49580   13.64050   36.22040    0    0    0
     118       40        1  0.00000000   16.04120    0.62284   21.65290    0    0    0
     119       40        2  0.00000000   16.87950    0.09204   21.52810    0    0    0
     120       40        2  0.00000000   15.71070    0.50837   22.58970    0    0    0
     121       41        1  0.00000000   18.40530   17.93210   39.17370    0    0    0
     122       41        2  0.00000000   18.24680   17.09110   38.65640    0    0    0
     123       41        2  0.00000000   18.03240   18.70990   38.66780    0    0    0
     124       42        1  0.00000000    1.96426   11.87260   29.08530    0    0    0
     125       42        2  0.00000000    1.33705   11.93610   28.30900    0    0    0
     126       42        2  0.00000000    2.51813   11.04440   28.99940    0    0    0
     127       43        1  0.00000000    2.71225   10.52660   22.54740    0    0    0
     128       43        2  0.00000000    1.77336   10.52980   22.89160    0    0    0
     129       43        2  0.00000000    2.81470    9.80264   21.86530    0    0    0
     130       44        1  0.00000000   18.41660   13.49630   34.42810    0    0    0
     131       44        2  0.00000000   18.21130   12.68040   34.96870    0    0    0
     132       44        2  0.00000000   19.35410   13.44130   34.08460    0    0    0
     133       45        1  0.00000000   11.48300   14.86740   34.59750    0    0    0
     134       45        2  0.00000000   10.66310   14.36860   34.87830    0    0    0
     135       45        2  0.00000000   11.57470   15.69590   35.15010    0    0    0
     136       46        1  0.00000000   15.18970   17.22950   20.03040    0    0    0
     137       46        2  0.00000000   14.73220   17.56790   19.20800    0    0    0
     138       46        2  0.00000000   15.26150   17.96870   20.69990    0    0    0
     139       47        1  0.00000000    4.73320   17.00110   24.88430    0    0    0
     140       47        2  0.00000000    5.20407   16.69390   25.71130    0    0    0
     141       47        2  0.00000000    4.32301   16.21460   24.42270    0    0    0
     142       48        1  0.00000000   11.13430   13.71500   21.26220    0    0    0
     143       48        2  0.00000000   10.67450   14.53950   21.59200    0    0    0
     144       48        2  0.00000000   12.12080   13.80620   21.39870    0    0    0
     145       49        1  0.00000000   11.70600   17.34250   23.75560    0    0    0
     146       49        2  0.00000000   10.80210   17.37740   24.18180    0    0    0
     147       49        2  0.00000000   12.15170   16.47840   23.98940    0    0    0
     148       50        1  0.00000000   18.04580    2.12385   34.81800    0    0    0
     149       50        2  0.00000000   17.76000    2.60548   35.64650    0    0    0
     150       50        2  0.00000000   18.62230    1.34561   35.06700    0    0    0
     151       51        1  0.00000000    2.16831   12.56130   33.33490    0    0    0
     152       51        2  0.00000000    2.52137   11.72530   33.75500    0    0    0
     153       51        2  0.00000000    2.75378   12.82150   32.56710    0    0    0
     154       52        1  0.00000000    9.30576    2.76448   32.77680    0    0    0
     155       52        2  0.00000000   10.19480    3.18154   32.58790    0    0    0
     156       52        2  0.00000000    9.28572    2.43576   33.72100    0    0    0
     157       53        1  0.00000000   10.50630    8.69877   36.50010    0    0    0
     158       53        2  0.00000000    9.93304    7.87979   36.52430    0    0    0
     159       53        2  0.00000000   11.09950    8.71431   37.30510    0    0    0
     160       54        1  0.00000000    9.32199    2.54397   29.45000    0    0    0
     161       54        2  0.00000000    9.94620    1.78296   29.62670    0    0    0
     162       54        2  0.00000000    8.43083    2.34573   29.85810    0    0    0
     163       55        1  0.00000000   11.14320    1.15433   25.95330    0    0    0
     164       55        2  0.00000000   10.91320    1.08951   24.98230    0    0    0
     165       55        2  0.00000000   11.60070    2.02578   26.13000    0    0    0
     166       56        1  0.00000000    7.33910    8.36185   35.61270    0    0    0
     167       56        2  0.00000000    7.78350    7.70324   35.00540    0    0    0
     168       56        2  0.00000000    6.79475    7.87246   36.29400    0    0    0
     169       57        1  0.00000000   12.75910    3.00060   27.53640    0    0    0
     170       57        2  0.00000000   11.98270    3.59809   27.73700    0    0    0
     171       57        2  0.00000000   13.40570    3.02700   28.29880    0    0    0
     172       58        1  0.00000000    2.40179    2.53817   37.07920    0    0    0
     173       58        2  0.00000000    1.58774    2.96069   37.47770    0    0    0
     174       58        2  0.00000000    2.39441    1.55632   37.26880    0    0    0
     175       59        1  0.00000000    9.84711    6.02779   37.32120    0    0    0
     176       59        2  0.00000000    8.89466    5.74654   37.43840    0    0    0
     177       59        2  0.00000000   10.41060    5.59888   38.02720    0    0    0
     178       60        1  0.00000000    4.07968    1.71825   28.90140    0    0    0
     179       60        2  0.00000000    3.80361    2.63204   28.60340    0    0    0
     180       60        2  0.00000000    3.42583    1.04400   28.55810    0    0    0
     181       61        1  0.00000000   12.41060    8.53384   32.06320    0    0    0
     182       61        2  0.00000000   11.96820    8.07050   32.83100    0    0    0
     183       61        2  0.00000000   12.30700    7.98144   31.23600    0    0    0
     184       62        1  0.00000000   11.30760    4.39680   29.68750    0    0    0
     185       62        2  0.00000000   10.42280    3.94510   29.57320    0    0    0
     186       62        2  0.00000000   11.62990    4.26606   30.62510    0    0    0
     187       63        1  0.00000000    9.64178    7.62665   22.34930    0    0    0
     188       63        2  0.00000000    9.64602    7.27882   23.28680    0    0    0
     189       63        2  0.00000000    9.09463    7.02099   21.77150    0    0    0
     190       64        1  0.00000000   13.97240   -1.62222   33.25570    0    0    0
     191       64        2  0.00000000   13.78990   -1.71873   34.23420    0    0    0
     192       64        2  0.00000000   14.90220   -1.93258   33.05790    0    0    0
     193       65        1  0.00000000    0.03680   11.19540   36.52170    0    0    0
     194       65        2  0.00000000   -0.13556   11.86450   37.24460    0    0    0
     195       65        2  0.00000000    1.00551   10.94720   36.52130    0    0    0
     196       66        1  0.00000000    7.07251    8.12569   31.17690    0    0    0
     197       66        2  0.00000000    7.64276    8.94713   31.16940    0    0    0
     198       66        2  0.00000000    7.33482    7.54479   31.94740    0    0    0
     199       67        1  0.00000000    4.28555    8.21461   31.83880    0    0    0
     200       67        2  0.00000000    4.03080    7.28563   32.10730    0    0    0
     201       67        2  0.00000000    5.25799    8.23974   31.60700    0    0    0
     202       68        1  0.00000000    4.72492   11.85050   24.02320    0    0    0
     203       68        2  0.00000000    5.53525   12.06570   23.47820    0    0    0
     204       68        2  0.00000000    4.14691   11.20700   23.52140    0    0    0
     205       69        1  0.00000000   18.22910   13.10100   30.44580    0    0    0
     206       69        2  0.00000000   17.58160   12.39590   30.73490    0    0    0
     207       69        2  0.00000000   19.16310   12.76160   30.55710    0    0    0
     208       70        1  0.00000000   10.61290   11.07560   35.34250    0    0    0
     209       70        2  0.00000000   10.75900   11.08150   34.35330    0    0    0
     210       70        2  0.00000000   10.78260   10.15680   35.69900    0    0    0
     211       71        1  0.00000000   13.69790    3.60707   23.36090    0    0    0
     212       71        2  0.00000000   13.81150    2.73877   22.87810    0    0    0
     213       71        2  0.00000000   14.47800    3.75491   23.96890    0    0    0
     214       72        1  0.00000000    5.12313   12.17390   26.83210    0    0    0
     215       72        2  0.00000000    4.50784   11.67330   27.44110    0    0    0
     216       72        2  0.00000000    4.93016   11.92310   25.88350    0    0    0
     217       73        1  0.00000000    9.49307   12.00910   22.64620    0    0    0
     218       73        2  0.00000000   10.19930   12.22420   21.97170    0    0    0
     219       73        2  0.00000000    9.70693   12.46560   23.50980    0    0    0
     220       74        1  0.00000000    2.71542   10.15360   36.58140    0    0    0
     221       74        2  0.00000000    3.00244   10.08470   35.62600    0    0    0
     222       74        2  0.00000000    2.74902    9.24873   37.00570    0    0    0
     223       75        1  0.00000000    5.66600    3.76334   34.95020    0    0    0
     224       75        2  0.00000000    4.76118    3.41307   34.70810    0    0    0
     225       75        2  0.00000000    6.14843    4.04252   34.11990    0    0    0
     226       76        1  0.00000000    9.31380   13.55500   35.05330    0    0    0
     227       76        2  0.00000000    8.78715   13.60690   34.20480    0    0    0
     228       76        2  0.00000000    9.60592   12.61110   35.20710    0    0    0
     229       77        1  0.00000000   18.63970   10.91400   20.45770    0    0    0
     230       77        2  0.00000000   17.66300   11.07800   20.31940    0    0    0
     231       77        2  0.00000000   19.16740   11.58470   19.93640    0    0    0
     232       78        1  0.00000000   16.13640   10.55810   34.76550    0    0    0
     233       78        2  0.00000000   15.28300   11.07940   34.76820    0    0    0
     234       78        2  0.00000000   16.36380   10.28610   35.70060    0    0    0
     235       79        1  0.00000000   15.98000   16.13540   24.29670    0    0    0
     236       79        2  0.00000000   16.06090   15.36790   24.93260    0    0    0
     237       79        2  0.00000000   16.23230   15.83440   23.37710    0    0    0
     238       80        1  0.00000000   13.05690   10.75200   29.10410    0    0    0
     239       80        2  0.00000000   13.60800   11.36010   28.53270    0    0    0
     240       80        2  0.00000000   13.65920   10.14280   29.62010    0    0    0
     241       81        1  0.00000000    8.87603   14.40190   26.97600    0    0    0
     242       81        2  0.00000000    9.58808   14.04310   27.57950    0    0    0
     243       81        2  0.00000000    9.20593   15.23330   26.52880    0    0    0
     244       82        1  0.00000000   -0.16829   10.31710   23.12560    0    0    0
     245       82        2  0.00000000   -0.24039   10.42060   22.13360    0    0    0
     246       82        2  0.00000000   -0.13834    9.34493   23.35800    0    0    0
     247       83        1  0.00000000   10.59900    9.43956   25.53400    0    0    0
     248       83        2  0.00000000   10.08830   10.24520   25.23380    0    0    0
     249       83        2  0.00000000   10.57600    9.38319   26.53220    0    0    0
     250       84        1  0.00000000   10.41380   12.81990   30.81580    0    0    0
     251       84        2  0.00000000   11.38540   12.98000   30.64170    0    0    0
     252       84        2  0.00000000    9.88658   13.61690   30.52120    0    0    0
     253       85        1  0.00000000   12.70760   13.99750   29.87010    0    0    0
     254       85        2  0.00000000   13.57380   13.85430   30.34890    0    0    0
     255       85        2  0.00000000   12.22450   14.77150   30.27960    0    0    0
     256       86        1  0.00000000   13.90590   13.00940   21.15590    0    0    0
     257       86        2  0.00000000   14.03980   12.42790   21.95830    0    0    0
     258       86        2  0.00000000   13.27780   12.56060   20.52010    0    0    0
     259       87        1  0.00000000   12.99460   12.97710   32.90520    0    0    0
     260       87        2  0.00000000   12.54050   13.56770   33.57220    0    0    0
     261       87        2  0.00000000   12.41910   12.18080   32.71880    0    0    0
     262       88        1  0.00000000    0.14994   18.57320   21.81340    0    0    0
     263       88        2  0.00000000    0.66886   17.77190   21.51550    0    0    0
     264       88        2  0.00000000    0.76963   19.35070   21.92060    0    0    0
     265       89        1  0.00000000   -2.05015    1.21341   32.49990    0    0    0
     266       89        2  0.00000000   -2.97393    1.59467   32.53560    0    0    0
     267       89        2  0.00000000   -1.53034    1.52415   33.29570    0    0    0
     268       90        1  0.00000000   11.86940   10.54820   19.21120    0    0    0
     269       90        2  0.00000000   12.42880    9.96539   19.80060    0    0    0
     270       90        2  0.00000000   11.16720   11.00140   19.76030    0    0    0
     271       91        1  0.00000000    0.32715   16.00640   33.25350    0    0    0
     272       91        2  0.00000000    0.01935   15.18490   33.73350    0    0    0
     273       91        2  0.00000000   -0.46662   16.54900   32.97880    0    0    0
     274       92        1  0.00000000    8.47119   16.97070   21.21650    0    0    0
     275       92        2  0.00000000    7.74775   16.43730   21.65480    0    0    0
     276       92        2  0.00000000    8.53006   16.72150   20.24980    0    0    0
     277       93        1  0.00000000   11.79420    3.92216   33.15470    0    0    0
     278       93        2  0.00000000   12.57510    3.29813   33.18090    0    0    0
     279       93        2  0.00000000   11.76390    4.45397   34.00100    0    0    0
     280       94        1  0.00000000   15.89500    3.88333   25.49810    0    0    0
     281       94        2  0.00000000   15.86160    2.99188   25.95000    0    0    0
     282       94        2  0.00000000   16.42920    3.81028   24.65580    0    0    0
     283       95        1  0.00000000   10.06490   13.95540   17.76160    0    0    0
     284       95        2  0.00000000   10.24820   13.82790   18.73640    0    0    0
     285       95        2  0.00000000   10.23630   13.09860   17.27540    0    0    0
     286       96        1  0.00000000    8.71674    6.29929   34.23700    0    0    0
     287       96        2  0.00000000    8.34302    5.53077   33.71770    0    0    0
     288       96        2  0.00000000    9.71575    6.26976   34.20360    0    0    0
     289       97        1  0.00000000   14.39370    1.20346   26.45090    0    0    0
     290       97        2  0.00000000   13.85650    1.94384   26.85500    0    0    0
     291       97        2  0.00000000   14.00070    0.32314   26.71660    0    0    0
     292       98        1  0.00000000    8.99134   18.21120   24.38580    0    0    0
     293       98        2  0.00000000    8.89760   18.95360   25.04910    0    0    0
     294       98        2  0.00000000    8.42844   18.40840   23.58310    0    0    0
     295       99        1  0.00000000   16.46340    7.12885   29.51600    0    0    0
     296       99        2  0.00000000   16.25380    6.91144   28.56270    0    0    0
     297       99        2  0.00000000   17.19490    7.80988   29.54940    0    0    0
     298      100        1  0.00000000    7.31612    9.37638   21.96340    0    0    0
     299      100        2  0.00000000    7.49011   10.35000   21.81600    0    0    0
     300      100        2  0.00000000    8.06745    8.97964   22.49080    0    0    0
     301      101        1  0.00000000   16.04440   16.49880   28.04590    0    0    0
     302      101        2  0.00000000   15.63260   15.72040   27.57210    0    0    0
     303      101        2  0.00000000   16.40920   17.14310   27.37370    0    0    0
     304      102        1  0.00000000    7.43109   18.53340   28.71130    0    0    0
     305      102        2  0.00000000    6.66184   18.09920   28.24250    0    0    0
     306      102        2  0.00000000    7.13306   19.40220   29.10660    0    0    0
     307      103        1  0.00000000   -2.39570   14.18810   25.99650    0    0    0
     308      103        2  0.00000000   -1.80193   14.27820   26.79600    0    0    0
     309      103        2  0.00000000   -1.99752   13.52920   25.35820    0    0    0
     310      104        1  0.00000000    2.86391   15.66000   37.09530    0    0    0
     311      104        2  0.00000000    2.69169   16.07030   37.99090    0    0    0
     312      104        2  0.00000000    3.76585   15.94140   36.76770    0    0    0
     313      105        1  0.00000000    8.24248   16.07290   18.35430    0    0    0
     314      105        2  0.00000000    8.74381   15.26810   18.03670    0    0    0
     315      105        2  0.00000000    8.40205   16.83440   17.72600    0    0    0
     316      106        1  0.00000000   10.90580   13.30260   37.70100    0    0    0
     317      106        2  0.00000000   10.10060   13.88970   37.78410    0    0    0
     318      106        2  0.00000000   10.88840   12.83630   36.81650    0    0    0
     319      107        1  0.00000000   11.07700   17.19590   35.85670    0    0    0