Created by /home/tpascal/scripts/createLammpsInput.pl on Mon Nov  7 14:10:12 2022

        1899 atoms
        1266 bonds
         633 angles

           4 atom types
           2 bond types
           2 angle types

		   0.000000  18.774350 xlo xhi
		   0.000000  18.774350 ylo yhi
		  20.000000  76.323000 zlo zhi

Masses

    1 1.5995E+01 # OW     
    2 1.0080E+00 # HW     
    3 1.2011E+01 # C_11   
    4 1.5999E+01 # O_21   


Bond Coeffs

    1   0.9572   556.85 -1419.97   2112.2 # OW HW 
    2     1.18      465 -1185.75   1763.8 # C_11 O_21 

Angle Coeffs

    1        0        0    108.5     48.7 -39.0643  8.95287 -6.41202  11.5463 # HW OW HW 
    2        0        0      180       65 -52.1392  11.9494 -8.55814  15.4108 # O_21 C_11 O_21 

UreyBradley Coeffs

    1        0        0  # HW OW HW 
    2        0        0  # O_21 C_11 O_21 

BondAngle Coeffs

    1        0        0        0        0  # HW OW HW 
    2     18.7     18.7     1.18     1.18  # O_21 C_11 O_21 

Atoms

       1        1        1  0.00000000   11.72300    6.54961   25.98500    0    0    0
       2        1        2  0.00000000   12.12800    6.21013   26.83390    0    0    0
       3        1        2  0.00000000   12.19290    6.13866   25.20380    0    0    0
       4        2        1  0.00000000   10.25190    9.27198   26.39310    0    0    0
       5        2        2  0.00000000    9.45249    8.77530   26.73110    0    0    0
       6        2        2  0.00000000   10.99660    8.62717   26.22060    0    0    0
       7        3        1  0.00000000    4.01809   13.16340   31.61460    0    0    0
       8        3        2  0.00000000    4.18395   12.64130   32.45120    0    0    0
       9        3        2  0.00000000    4.47748   12.71720   30.84660    0    0    0
      10        4        1  0.00000000   13.48120   16.41250   28.30690    0    0    0
      11        4        2  0.00000000   14.28160   16.36320   28.90430    0    0    0
      12        4        2  0.00000000   13.48430   15.63290   27.68060    0    0    0
      13        5        1  0.00000000    5.33737   15.48540   31.33570    0    0    0
      14        5        2  0.00000000    6.04351   15.29180   30.65460    0    0    0
      15        5        2  0.00000000    4.88257   14.63360   31.59570    0    0    0
      16        6        1  0.00000000   -0.96256    7.13712   28.44150    0    0    0
      17        6        2  0.00000000   -0.93856    6.64917   29.31410    0    0    0
      18        6        2  0.00000000   -1.87161    7.04771   28.03450    0    0    0
      19        7        1  0.00000000    9.73704   16.41920   27.46520    0    0    0
      20        7        2  0.00000000   10.23430   17.16490   27.02180    0    0    0
      21        7        2  0.00000000    9.07476   16.03230   26.82360    0    0    0
      22        8        1  0.00000000    7.84365   12.74260   28.91480    0    0    0
      23        8        2  0.00000000    8.73688   12.29950   28.99120    0    0    0
      24        8        2  0.00000000    7.94675   13.72710   29.05620    0    0    0
      25        9        1  0.00000000    1.69765    4.36636   31.08140    0    0    0
      26        9        2  0.00000000    1.56030    4.46446   32.06700    0    0    0
      27        9        2  0.00000000    1.90454    3.41176   30.86710    0    0    0
      28       10        1  0.00000000   14.57120    1.73241   27.29030    0    0    0
      29       10        2  0.00000000   15.56800    1.67250   27.23710    0    0    0
      30       10        2  0.00000000   14.22420    2.22813   26.49410    0    0    0
      31       11        1  0.00000000    5.83117    9.66163   32.03200    0    0    0
      32       11        2  0.00000000    6.74160   10.06380   31.93510    0    0    0
      33       11        2  0.00000000    5.62863    9.52509   33.00180    0    0    0
      34       12        1  0.00000000    7.77248    7.92474   27.17490    0    0    0
      35       12        2  0.00000000    7.51668    8.14769   26.23420    0    0    0
      36       12        2  0.00000000    6.95639    7.93160   27.75280    0    0    0
      37       13        1  0.00000000   18.00020    5.65978   30.78300    0    0    0
      38       13        2  0.00000000   18.89020    5.21386   30.87860    0    0    0
      39       13        2  0.00000000   17.93900    6.42289   31.42640    0    0    0
      40       14        1  0.00000000    6.13808   -0.80939   32.83670    0    0    0
      41       14        2  0.00000000    5.87100   -1.69276   32.45160    0    0    0
      42       14        2  0.00000000    6.52891   -0.23623   32.11650    0    0    0
      43       15        1  0.00000000   12.04430   11.43210   25.67680    0    0    0
      44       15        2  0.00000000   11.52130   10.58430   25.76430    0    0    0
      45       15        2  0.00000000   12.69860   11.49930   26.43010    0    0    0
      46       16        1  0.00000000    4.45335   11.89350   33.90730    0    0    0
      47       16        2  0.00000000    5.28618   11.48530   34.28120    0    0    0
      48       16        2  0.00000000    3.93083   12.32020   34.64550    0    0    0
      49       17        1  0.00000000   13.12530    5.48376   28.27800    0    0    0
      50       17        2  0.00000000   13.47290    4.54615   28.26720    0    0    0
      51       17        2  0.00000000   13.05550    5.80252   29.22330    0    0    0
      52       18        1  0.00000000    4.42241    2.00692   32.20070    0    0    0
      53       18        2  0.00000000    3.63935    1.83164   32.79740    0    0    0
      54       18        2  0.00000000    5.17816    2.37534   32.74210    0    0    0
      55       19        1  0.00000000    7.79350   15.31520   35.26360    0    0    0
      56       19        2  0.00000000    7.50614   16.26600   35.37950    0    0    0
      57       19        2  0.00000000    7.31980   14.74020   35.93070    0    0    0
      58       20        1  0.00000000    2.71279   10.99360   22.83290    0    0    0
      59       20        2  0.00000000    3.23983   11.81500   22.61490    0    0    0
      60       20        2  0.00000000    2.48172   10.99430   23.80590    0    0    0
      61       21        1  0.00000000   15.54010   15.67720   30.13340    0    0    0
      62       21        2  0.00000000   15.18750   15.72130   31.06820    0    0    0
      63       21        2  0.00000000   15.66270   14.72080   29.86820    0    0    0
      64       22        1  0.00000000   16.77090    2.96080   30.13250    0    0    0
      65       22        2  0.00000000   15.86010    3.30103   30.36640    0    0    0
      66       22        2  0.00000000   17.36120    3.72984   29.88720    0    0    0
      67       23        1  0.00000000    8.23178    2.92333   30.84410    0    0    0
      68       23        2  0.00000000    8.36607    3.63842   31.53010    0    0    0
      69       23        2  0.00000000    8.84780    3.08176   30.07250    0    0    0
      70       24        1  0.00000000   13.17700   18.96570   29.12240    0    0    0
      71       24        2  0.00000000   12.87310   18.05900   28.82980    0    0    0
      72       24        2  0.00000000   13.75220   19.37000   28.41130    0    0    0
      73       25        1  0.00000000   13.64200   11.97090   27.91140    0    0    0
      74       25        2  0.00000000   13.21900   11.64450   28.75670    0    0    0
      75       25        2  0.00000000   14.37310   12.61650   28.13230    0    0    0
      76       26        1  0.00000000   11.43310   14.67320   30.65580    0    0    0
      77       26        2  0.00000000   11.62060   14.16860   29.81310    0    0    0
      78       26        2  0.00000000   11.93450   15.53830   30.64490    0    0    0
      79       27        1  0.00000000   10.48440    7.44450   23.35750    0    0    0
      80       27        2  0.00000000   11.01210    8.13521   22.86300    0    0    0
      81       27        2  0.00000000   10.41040    6.61849   22.79870    0    0    0
      82       28        1  0.00000000    9.18261    4.83088   23.29660    0    0    0
      83       28        2  0.00000000    8.88885    5.41162   24.05580    0    0    0
      84       28        2  0.00000000    8.40685    4.29049   22.97080    0    0    0
      85       29        1  0.00000000   15.75960    9.95633   27.85270    0    0    0
      86       29        2  0.00000000   16.65040   10.32350   28.12040    0    0    0
      87       29        2  0.00000000   15.10440   10.70600   27.75980    0    0    0
      88       30        1  0.00000000   14.35670   10.38140   23.88510    0    0    0
      89       30        2  0.00000000   13.71560   10.75000   24.55820    0    0    0
      90       30        2  0.00000000   15.28420   10.68040   24.10960    0    0    0
      91       31        1  0.00000000   12.93890    7.46804   30.42690    0    0    0
      92       31        2  0.00000000   13.07460    6.93800   31.26390    0    0    0
      93       31        2  0.00000000   11.96140    7.62514   30.28660    0    0    0
      94       32        1  0.00000000    5.63276   10.01340   27.06160    0    0    0
      95       32        2  0.00000000    4.86969   10.51050   26.64850    0    0    0
      96       32        2  0.00000000    5.40626    9.78142   28.00760    0    0    0
      97       33        1  0.00000000    5.45698   11.76550   29.49700    0    0    0
      98       33        2  0.00000000    5.64861   10.84740   29.84390    0    0    0
      99       33        2  0.00000000    6.30604   12.18390   29.17440    0    0    0
     100       34        1  0.00000000   10.00270    7.75001   29.82910    0    0    0
     101       34        2  0.00000000    9.91711    8.67822   30.19120    0    0    0
     102       34        2  0.00000000    9.47446    7.67208   28.98350    0    0    0
     103       35        1  0.00000000   12.74000   17.51080   31.26530    0    0    0
     104       35        2  0.00000000   13.65000   17.42070   31.66990    0    0    0
     105       35        2  0.00000000   12.71840   18.31300   30.66860    0    0    0
     106       36        1  0.00000000    6.54526   13.79780   37.24130    0    0    0
     107       36        2  0.00000000    7.00252   12.90850   37.25370    0    0    0
     108       36        2  0.00000000    5.67100   13.71640   36.76270    0    0    0
     109       37        1  0.00000000   11.55700    9.44378   21.85980    0    0    0
     110       37        2  0.00000000   10.93690   10.02800   21.33630    0    0    0
     111       37        2  0.00000000   12.50140    9.63745   21.59400    0    0    0
     112       38        1  0.00000000    2.07078    9.34289   32.54770    0    0    0
     113       38        2  0.00000000    2.79796    9.91808   32.17300    0    0    0
     114       38        2  0.00000000    2.34053    9.01120   33.45170    0    0    0
     115       39        1  0.00000000   11.02790   13.97780   27.94950    0    0    0
     116       39        2  0.00000000   11.87180   13.99070   27.41310    0    0    0
     117       39        2  0.00000000   10.57990   14.86970   27.88770    0    0    0
     118       40        1  0.00000000    4.81035   18.30530   37.12530    0    0    0
     119       40        2  0.00000000    5.66097   18.41710   36.61150    0    0    0
     120       40        2  0.00000000    4.83733   17.44310   37.63110    0    0    0
     121       41        1  0.00000000   19.16310    1.42195   22.66610    0    0    0
     122       41        2  0.00000000   18.24250    1.56725   23.02850    0    0    0
     123       41        2  0.00000000   19.68460    2.27278   22.73010    0    0    0
     124       42        1  0.00000000   17.99690   20.18050   38.58390    0    0    0
     125       42        2  0.00000000   18.18480   20.03620   37.61230    0    0    0
     126       42        2  0.00000000   18.34170   19.40260   39.10920    0    0    0
     127       43        1  0.00000000    3.44697   13.04310   27.96820    0    0    0
     128       43        2  0.00000000    4.25363   12.63790   28.39850    0    0    0
     129       43        2  0.00000000    2.64934   12.89990   28.55420    0    0    0
     130       44        1  0.00000000   -0.77457   11.71490   29.22090    0    0    0
     131       44        2  0.00000000   -0.04568   12.08180   29.79890    0    0    0
     132       44        2  0.00000000   -0.58399   11.93490   28.26420    0    0    0
     133       45        1  0.00000000   18.87160   13.07990   36.05400    0    0    0
     134       45        2  0.00000000   19.59870   12.43570   36.29140    0    0    0
     135       45        2  0.00000000   18.06050   12.57390   35.76070    0    0    0
     136       46        1  0.00000000   10.84020   16.68320   33.22950    0    0    0
     137       46        2  0.00000000   11.28290   17.29620   32.57500    0    0    0
     138       46        2  0.00000000   10.01680   16.29350   32.81690    0    0    0
     139       47        1  0.00000000   13.52900   18.80880   24.24610    0    0    0
     140       47        2  0.00000000   13.63110   19.73140   24.61800    0    0    0
     141       47        2  0.00000000   12.56780   18.64260   24.02600    0    0    0
     142       48        1  0.00000000    7.80258   18.63890   27.51480    0    0    0
     143       48        2  0.00000000    8.67855   18.51100   27.97990    0    0    0
     144       48        2  0.00000000    7.83064   18.18970   26.62180    0    0    0
     145       49        1  0.00000000   12.28430   15.97030   22.19900    0    0    0
     146       49        2  0.00000000   13.01860   15.72250   21.56700    0    0    0
     147       49        2  0.00000000   12.17010   15.24510   22.87800    0    0    0
     148       50        1  0.00000000   13.49350   14.55370   26.31920    0    0    0
     149       50        2  0.00000000   13.82030   15.11830   25.56120    0    0    0
     150       50        2  0.00000000   12.96680   13.78410   25.95850    0    0    0
     151       51        1  0.00000000   17.57690    5.11313   36.12050    0    0    0
     152       51        2  0.00000000   16.78940    5.63991   36.44030    0    0    0
     153       51        2  0.00000000   17.50230    4.96782   35.13390    0    0    0
     154       52        1  0.00000000   -1.74680   11.14780   35.59840    0    0    0
     155       52        2  0.00000000   -0.86621   10.67510   35.63080    0    0    0
     156       52        2  0.00000000   -2.31470   10.74580   34.88010    0    0    0
     157       53        1  0.00000000    9.98066    5.18225   34.49810    0    0    0
     158       53        2  0.00000000    9.67260    5.45340   33.58620    0    0    0
     159       53        2  0.00000000   10.77320    5.73312   34.75970    0    0    0
     160       54        1  0.00000000   14.56560    4.31594   35.13480    0    0    0
     161       54        2  0.00000000   14.78190    5.12704   35.67820    0    0    0
     162       54        2  0.00000000   15.26710    4.18748   34.43380    0    0    0
     163       55        1  0.00000000   12.64150    9.24872   39.00890    0    0    0
     164       55        2  0.00000000   13.41610    9.70109   39.45100    0    0    0
     165       55        2  0.00000000   12.30240    9.82170   38.26280    0    0    0
     166       56        1  0.00000000    6.52329    0.96461   30.67360    0    0    0
     167       56        2  0.00000000    7.24742    1.61755   30.45160    0    0    0
     168       56        2  0.00000000    5.78394    1.43719   31.15320    0    0    0
     169       57        1  0.00000000   10.69060    2.90599   25.95950    0    0    0
     170       57        2  0.00000000   10.97830    2.95931   25.00330    0    0    0
     171       57        2  0.00000000   10.25120    3.76458   26.22380    0    0    0
     172       58        1  0.00000000   11.34760    7.25061   37.69940    0    0    0
     173       58        2  0.00000000   11.50080    7.25529   36.71120    0    0    0
     174       58        2  0.00000000   12.01180    7.85272   38.14250    0    0    0
     175       59        1  0.00000000    9.27866    5.26418   26.33360    0    0    0
     176       59        2  0.00000000   10.09450    5.84038   26.28420    0    0    0
     177       59        2  0.00000000    8.55068    5.75727   26.81000    0    0    0
     178       60        1  0.00000000   -0.72692    0.87342   25.66200    0    0    0
     179       60        2  0.00000000   -0.96700    0.88236   26.63280    0    0    0
     180       60        2  0.00000000   -0.32629    1.75421   25.40970    0    0    0
     181       61        1  0.00000000    0.44889    6.53282   22.12970    0    0    0
     182       61        2  0.00000000    0.58768    7.32899   21.54070    0    0    0
     183       61        2  0.00000000   -0.28180    6.72595   22.78450    0    0    0
     184       62        1  0.00000000   12.65980   10.55900   30.09100    0    0    0
     185       62        2  0.00000000   11.89980   10.59930   30.73970    0    0    0
     186       62        2  0.00000000   13.03190    9.63107   30.07060    0    0    0
     187       63        1  0.00000000   10.23460    5.11517   31.42170    0    0    0
     188       63        2  0.00000000   10.26900    5.83850   30.73200    0    0    0
     189       63        2  0.00000000   10.51520    4.24825   31.00980    0    0    0
     190       64        1  0.00000000   14.52440    4.01169   31.18630    0    0    0
     191       64        2  0.00000000   13.76410    3.38636   31.01030    0    0    0
     192       64        2  0.00000000   14.33310    4.54554   32.00990    0    0    0
     193       65        1  0.00000000    8.09413    8.58808   24.37590    0    0    0
     194       65        2  0.00000000    7.67471    7.74558   24.03780    0    0    0
     195       65        2  0.00000000    9.03398    8.65057   24.04010    0    0    0
     196       66        1  0.00000000   17.87110    1.92457   33.89490    0    0    0
     197       66        2  0.00000000   18.04120    1.40159   34.73010    0    0    0
     198       66        2  0.00000000   17.55210    1.30829   33.17490    0    0    0
     199       67        1  0.00000000    1.77991   11.25100   36.78030    0    0    0
     200       67        2  0.00000000    2.47201   11.51470   37.45220    0    0    0
     201       67        2  0.00000000    1.95650   10.31730   36.46870    0    0    0
     202       68        1  0.00000000    9.97702   10.38390   31.05610    0    0    0
     203       68        2  0.00000000    9.45828   10.75500   31.82630    0    0    0
     204       68        2  0.00000000   10.06810   11.08360   30.34760    0    0    0
     205       69        1  0.00000000    5.34538   12.17710   24.22280    0    0    0
     206       69        2  0.00000000    6.20637   11.74740   24.49480    0    0    0
     207       69        2  0.00000000    4.74297   12.24900   25.01780    0    0    0
     208       70        1  0.00000000   15.55250   12.61900   30.10480    0    0    0
     209       70        2  0.00000000   15.33470   12.23120   31.00040    0    0    0
     210       70        2  0.00000000   16.43530   12.26630   29.79460    0    0    0
     211       71        1  0.00000000    6.17199    0.75046   21.37600    0    0    0
     212       71        2  0.00000000    7.06414    0.41186   21.07690    0    0    0
     213       71        2  0.00000000    5.57457   -0.02376   21.58490    0    0    0
     214       72        1  0.00000000   12.15210   10.40540   36.41860    0    0    0
     215       72        2  0.00000000   11.22220   10.71620   36.61510    0    0    0
     216       72        2  0.00000000   12.75030   11.19790   36.29990    0    0    0
     217       73        1  0.00000000   11.74520    3.91954   23.51670    0    0    0
     218       73        2  0.00000000   12.26620    4.05089   22.67330    0    0    0
     219       73        2  0.00000000   10.80930    4.24608   23.38460    0    0    0
     220       74        1  0.00000000    3.25197   11.24270   25.95460    0    0    0
     221       74        2  0.00000000    2.44239   10.72840   25.67150    0    0    0
     222       74        2  0.00000000    2.96928   12.05530   26.46410    0    0    0
     223       75        1  0.00000000    9.03885   13.83510   25.61170    0    0    0
     224       75        2  0.00000000    8.54939   13.15660   26.15940    0    0    0
     225       75        2  0.00000000    9.99572   13.56020   25.51770    0    0    0
     226       76        1  0.00000000   -1.00812    8.32505   35.03410    0    0    0
     227       76        2  0.00000000   -0.81519    8.27866   36.01420    0    0    0
     228       76        2  0.00000000   -1.95314    8.04409   34.86670    0    0    0
     229       77        1  0.00000000    5.17523    7.53555   35.29930    0    0    0
     230       77        2  0.00000000    5.04863    7.15042   36.21350    0    0    0
     231       77        2  0.00000000    4.29976    7.87697   34.95730    0    0    0
     232       78        1  0.00000000    9.81837   13.27280   35.31060    0    0    0
     233       78        2  0.00000000    9.11386   13.97730   35.22520    0    0    0
     234       78        2  0.00000000    9.44298   12.48310   35.79590    0    0    0
     235       79        1  0.00000000   14.16720    9.98049   21.30770    0    0    0
     236       79        2  0.00000000   14.17580   10.08620   22.30210    0    0    0
     237       79        2  0.00000000   14.94100   10.47610   20.91320    0    0    0
     238       80        1  0.00000000   18.73150    8.82026   37.91900    0    0    0
     239       80        2  0.00000000   19.23260    9.63384   38.21390    0    0    0
     240       80        2  0.00000000   17.91570    8.70743   38.48630    0    0    0
     241       81        1  0.00000000   15.47760   13.11730   23.05500    0    0    0
     242       81        2  0.00000000   15.75480   13.99010   23.45680    0    0    0
     243       81        2  0.00000000   15.65260   12.37960   23.70710    0    0    0
     244       82        1  0.00000000   10.14370   11.43330   28.45570    0    0    0
     245       82        2  0.00000000    9.97816   10.72810   27.76630    0    0    0
     246       82        2  0.00000000   10.77130   12.11900   28.08720    0    0    0
     247       83        1  0.00000000    7.73740   16.02400   25.77730    0    0    0
     248       83        2  0.00000000    6.78152   15.97800   26.06740    0    0    0
     249       83        2  0.00000000    8.08763   15.09810   25.63570    0    0    0
     250       84        1  0.00000000   -0.52208    9.67485   22.39420    0    0    0
     251       84        2  0.00000000   -1.00148   10.42740   21.94270    0    0    0
     252       84        2  0.00000000    0.19466    9.32620   21.79030    0    0    0
     253       85        1  0.00000000    7.49765   11.09670   25.44520    0    0    0
     254       85        2  0.00000000    7.85002   10.26440   25.01720    0    0    0
     255       85        2  0.00000000    7.06298   10.86550   26.31560    0    0    0
     256       86        1  0.00000000    7.21174   13.73160   33.18880    0    0    0
     257       86        2  0.00000000    7.35688   14.41620   33.90310    0    0    0
     258       86        2  0.00000000    7.64921   14.03500   32.34240    0    0    0
     259       87        1  0.00000000   13.82540   12.67520   32.31990    0    0    0
     260       87        2  0.00000000   13.42880   12.57310   31.40760    0    0    0
     261       87        2  0.00000000   13.22240   13.23900   32.88430    0    0    0
     262       88        1  0.00000000   13.89480   15.34020   20.21140    0    0    0
     263       88        2  0.00000000   14.76440   15.74550   19.92940    0    0    0
     264       88        2  0.00000000   13.78160   14.45140   19.76720    0    0    0
     265       89        1  0.00000000   12.16320   14.13270   34.09430    0    0    0
     266       89        2  0.00000000   12.06580   15.12590   34.03130    0    0    0
     267       89        2  0.00000000   11.35290   13.74560   34.53450    0    0    0
     268       90        1  0.00000000    1.32618   17.53190   23.23220    0    0    0
     269       90        2  0.00000000    1.33096   18.51380   23.04260    0    0    0
     270       90        2  0.00000000    0.52433   17.11390   22.80520    0    0    0
     271       91        1  0.00000000    2.13581    4.03527   33.73330    0    0    0
     272       91        2  0.00000000    3.11848    4.11429   33.90100    0    0    0
     273       91        2  0.00000000    1.89381    3.07191   33.61770    0    0    0
     274       92        1  0.00000000   12.41140   13.27230   23.56510    0    0    0
     275       92        2  0.00000000   12.15350   12.47570   24.11190    0    0    0
     276       92        2  0.00000000   13.18000   13.03430   22.97130    0    0    0
     277       93        1  0.00000000   -0.10096   18.85700   36.04570    0    0    0
     278       93        2  0.00000000    0.74366   19.10760   35.57250    0    0    0
     279       93        2  0.00000000   -0.02181   17.92440   36.39760    0    0    0
     280       94        1  0.00000000    7.97674   16.69780   23.27520    0    0    0
     281       94        2  0.00000000    8.18289   16.64460   24.25230    0    0    0
     282       94        2  0.00000000    7.07080   17.10140   23.14720    0    0    0
     283       95        1  0.00000000    0.85329   10.19500   24.96820    0    0    0
     284       95        2  0.00000000    0.64067    9.34900   25.45710    0    0    0
     285       95        2  0.00000000    0.64075   10.08150   23.99760    0    0    0
     286       96        1  0.00000000   12.67110    5.59231   32.70480    0    0    0
     287       96        2  0.00000000   12.79090    5.46420   33.68930    0    0    0
     288       96        2  0.00000000   11.70780    5.77328   32.50690    0    0    0
     289       97        1  0.00000000   14.18380    3.20188   24.78280    0    0    0
     290       97        2  0.00000000   13.24600    3.34826   24.46800    0    0    0
     291       97        2  0.00000000   14.74410    3.99404   24.54070    0    0    0
     292       98        1  0.00000000    9.66172   15.29290   20.62320    0    0    0
     293       98        2  0.00000000    9.53572   14.33880   20.89500    0    0    0
     294       98        2  0.00000000   10.61100   15.56280   20.78440    0    0    0
     295       99        1  0.00000000   10.35190    3.31100   29.32090    0    0    0
     296       99        2  0.00000000   10.26020    3.13484   28.34090    0    0    0
     297       99        2  0.00000000   11.04830    2.70458   29.70490    0    0    0
     298      100        1  0.00000000   11.10030   17.97970   23.52330    0    0    0
     299      100        2  0.00000000   10.36650   18.36970   22.96700    0    0    0
     300      100        2  0.00000000   11.63010   17.33530   22.97190    0    0    0
     301      101        1  0.00000000   16.71990    4.57140   33.27810    0    0    0
     302      101        2  0.00000000   16.63030    4.68732   32.28880    0    0    0
     303      101        2  0.00000000   17.18750    3.70893   33.47160    0    0    0
     304      102        1  0.00000000   15.40060    6.86571   27.10170    0    0    0
     305      102        2  0.00000000   15.20030    7.84372   27.04330    0    0    0
     306      102        2  0.00000000   14.72270    6.42109   27.68720    0    0    0
     307      103        1  0.00000000    1.85960    9.00069   21.21360    0    0    0
     308      103        2  0.00000000    2.51514    8.66345   20.53790    0    0    0
     309      103        2  0.00000000    2.29965    9.68903   21.79030    0    0    0
     310      104        1  0.00000000   20.31470   13.21000   30.54860    0    0    0
     311      104        2  0.00000000   21.26900   13.10030   30.82650    0    0    0
     312      104        2  0.00000000   19.75110   13.38860   31.35510    0    0    0
     313      105        1  0.00000000    5.02641   18.78710   28.42000    0    0    0
     314      105        2  0.00000000    5.92187   18.54050   28.04940    0    0    0
     315      105        2  0.00000000    5.14752   19.31960   29.25770    0    0    0
     316      106        1  0.00000000   -0.84204   13.14950   26.55390    0    0    0
     317      106        2  0.00000000    0.06116   13.15470   26.12470    0    0    0
     318      106        2  0.00000000   -1.23087   14.07030   26.52340    0    0    0
     319      107        1  0.00000000    2.61546   14.27040   38.95750    0    0    0
     320      107        2  0.00000000    3.45504   14.77610   39.15600    0    0    0
     321      107        2  0.00000000    1.87386   14.61710   39.53180    0    0    0
     322      108        1  0.00000000    6.64124   15.57830   20.37240    0    0    0
     323      108        2  0.00000000    7.51851   15.73200   20.82710    0    0    0
     324      108        2  0.00000000    6.80125   15.23980   19.44510    0    0    0
     325      109        1  0.00000000   13.97160   12.46550   38.33470    0    0    0
     326      109        2  0.00000000   14.02340   12.48800   37.33620    0    0    0
     327      109        2  0.00000000   14.75670   11.96380   38.69790    0    0    0
     328      110        1  0.00000000   13.95160   17.10450   36.54350    0    0    0
     329      110        2  0.00000000   13.02180   17.45040   36.41790    0    0    0
     330      110        2  0.00000000   13.94360   16.36290   37.21430    0    0    0
     331      111        1  0.00000000   17.51920   16.40680   22.46100    0    0    0
     332      111        2  0.00000000   16.86360   16.72160   23.14730    0    0    0
     333      111        2  0.00000000   17.23790   16.73090   21.55780    0    0    0