Created by /home/tpascal/scripts/createLammpsInput.pl on Mon Nov  7 14:10:13 2022

        1980 atoms
        1320 bonds
         674 angles
          14 dihedrals
           7 impropers

           7 atom types
           4 bond types
           4 angle types
           1 dihedral types
           1 improper types

		   0.000000  18.774350 xlo xhi
		   0.000000  18.774350 ylo yhi
		  20.000000  76.323000 zlo zhi

Masses

    1 1.5995E+01 # OW     
    2 1.0080E+00 # HW     
    3 1.2011E+01 # C_HC   
    4 1.0080E+00 # H_HC   
    5 1.5999E+01 # O_2HC  
    6 1.5999E+01 # O_3HC  
    7 2.2990E+01 # Na+    


Bond Coeffs

    1   0.9572   556.85 -1419.97   2112.2 # OW HW 
    2   1.2525      605 -1542.75  2294.84 # O_2HC C_HC 
    3    1.454    331.6  -845.58   1257.8 # O_3HC C_HC 
    4   0.9737    514.4 -1311.72  1951.18 # H_HC O_3HC 

Angle Coeffs

    1        0        0    108.5     48.7 -39.0643  8.95287 -6.41202  11.5463 # HW OW HW 
    2        0        0    108.7     49.6 -39.7862  9.11832 -6.53052  11.7597 # H_HC O_3HC C_HC 
    3        0        0   133.04    102.5 -82.2194  18.8433 -13.4955  24.3017 # O_2HC C_HC O_2HC 
    4        0        0   113.48     92.3 -74.0376  16.9682 -12.1526  21.8834 # O_3HC C_HC O_2HC 

Dihedral Coeffs

    1        6   -1.051        1        0   10.091        2      180   -1.054        3        0    0.129        4      180   -1.052        5        0    0.004        6      180 # H_HC O_3HC C_HC O_2HC 

Improper Coeffs

    1      242 # C_HC O_2HC O_3HC O_2HC 

UreyBradley Coeffs

    1        0        0  # HW OW HW 
    2        0        0  # H_HC O_3HC C_HC 
    3        0        0  # O_2HC C_HC O_2HC 
    4        0        0  # O_3HC C_HC O_2HC 

BondAngle Coeffs

    1        0        0        0        0  # HW OW HW 
    2        0        0        0        0  # H_HC O_3HC C_HC 
    3     18.7     18.7   1.2525   1.2525  # O_2HC C_HC O_2HC 
    4     18.7     18.7    1.454   1.2525  # O_3HC C_HC O_2HC 

Atoms

       1        1        1  0.00000000   11.72930    9.13060   26.12130    0    0    0
       2        1        2  0.00000000   11.35300    9.55833   25.29950    0    0    0
       3        1        2  0.00000000   11.88700    8.15833   25.94870    0    0    0
       4        2        1  0.00000000    9.61922   10.19080   27.84080    0    0    0
       5        2        2  0.00000000    8.89881   10.47070   27.20630    0    0    0
       6        2        2  0.00000000   10.38320    9.80084   27.32670    0    0    0
       7        3        1  0.00000000    3.42899    9.41447   29.56920    0    0    0
       8        3        2  0.00000000    3.25477    9.21727   30.53390    0    0    0
       9        3        2  0.00000000    4.41325    9.38361   29.39510    0    0    0
      10        4        1  0.00000000   17.11760   13.26480   28.65200    0    0    0
      11        4        2  0.00000000   16.40620   13.37220   27.95740    0    0    0
      12        4        2  0.00000000   17.45070   14.16580   28.92990    0    0    0
      13        5        1  0.00000000    4.33880   14.89390   28.10900    0    0    0
      14        5        2  0.00000000    4.36098   15.85230   27.82450    0    0    0
      15        5        2  0.00000000    5.15458   14.42620   27.76880    0    0    0
      16        6        1  0.00000000   11.02460   16.32540   25.11800    0    0    0
      17        6        2  0.00000000   11.90940   16.60910   25.48770    0    0    0
      18        6        2  0.00000000   10.56560   17.11440   24.70950    0    0    0
      19        7        1  0.00000000    9.30866   11.90300   29.93960    0    0    0
      20        7        2  0.00000000   10.01670   12.55320   30.21540    0    0    0
      21        7        2  0.00000000    9.67988   11.27690   29.25390    0    0    0
      22        8        1  0.00000000    0.78060    3.37781   32.05390    0    0    0
      23        8        2  0.00000000    0.79587    3.47945   31.05920    0    0    0
      24        8        2  0.00000000    0.75355    2.40629   32.28930    0    0    0
      25        9        1  0.00000000    9.07206    7.23456   26.74570    0    0    0
      26        9        2  0.00000000    8.80726    8.19040   26.61820    0    0    0
      27        9        2  0.00000000    9.54146    6.90655   25.92590    0    0    0
      28       10        1  0.00000000   14.31540    3.94485   26.51210    0    0    0
      29       10        2  0.00000000   15.29660    3.99971   26.69740    0    0    0
      30       10        2  0.00000000   14.06400    2.99511   26.32560    0    0    0
      31       11        1  0.00000000    2.29099    7.55743   26.66630    0    0    0
      32       11        2  0.00000000    2.60735    8.30992   27.24400    0    0    0
      33       11        2  0.00000000    1.84388    7.92756   25.85200    0    0    0
      34       12        1  0.00000000    5.65977    6.87597   27.85500    0    0    0
      35       12        2  0.00000000    5.05035    6.12585   28.11180    0    0    0
      36       12        2  0.00000000    5.70461    6.94267   26.85820    0    0    0
      37       13        1  0.00000000   20.57080    5.96499   31.43340    0    0    0
      38       13        2  0.00000000   20.26600    6.34885   30.56180    0    0    0
      39       13        2  0.00000000   19.84700    5.39096   31.81620    0    0    0
      40       14        1  0.00000000    5.74134    1.48505   30.73090    0    0    0
      41       14        2  0.00000000    5.85879    1.99123   29.87650    0    0    0
      42       14        2  0.00000000    5.81411    0.50425   30.55000    0    0    0
      43       15        1  0.00000000   11.74460   14.27050   23.27540    0    0    0
      44       15        2  0.00000000   11.15270   14.11110   22.48540    0    0    0
      45       15        2  0.00000000   11.44520   15.09520   23.75520    0    0    0
      46       16        1  0.00000000    6.53613   11.76960   27.73760    0    0    0
      47       16        2  0.00000000    6.33385   11.64000   28.70830    0    0    0
      48       16        2  0.00000000    6.71962   12.73670   27.56160    0    0    0
      49       17        1  0.00000000   13.57340    6.28171   27.51550    0    0    0
      50       17        2  0.00000000   13.93150    6.96863   26.88310    0    0    0
      51       17        2  0.00000000   13.70920    5.36960   27.12870    0    0    0
      52       18        1  0.00000000    4.38460    4.93966   30.88440    0    0    0
      53       18        2  0.00000000    4.50963    4.49203   29.99890    0    0    0
      54       18        2  0.00000000    3.46077    5.31859   30.93880    0    0    0
      55       19        1  0.00000000    6.17173   14.13970   31.33660    0    0    0
      56       19        2  0.00000000    5.25595   13.89660   31.01680    0    0    0
      57       19        2  0.00000000    6.53826   14.87680   30.76890    0    0    0
      58       20        1  0.00000000    1.65258   11.72180   21.37620    0    0    0
      59       20        2  0.00000000    2.06179   12.61240   21.17770    0    0    0
      60       20        2  0.00000000    0.76270   11.85380   21.81290    0    0    0
      61       21        1  0.00000000   16.04460   16.03780   30.65370    0    0    0
      62       21        2  0.00000000   16.06970   15.92010   29.66090    0    0    0
      63       21        2  0.00000000   16.80170   16.62560   30.93880    0    0    0
      64       22        1  0.00000000   16.11300    5.38230   30.71440    0    0    0
      65       22        2  0.00000000   16.33480    6.09013   30.04380    0    0    0
      66       22        2  0.00000000   16.34040    4.48398   30.33850    0    0    0
      67       23        1  0.00000000    7.02340    1.42461   24.70040    0    0    0
      68       23        2  0.00000000    6.25572    0.79084   24.79530    0    0    0
      69       23        2  0.00000000    7.61658    1.12038   23.95500    0    0    0
      70       24        1  0.00000000   14.29130   15.34230   27.93770    0    0    0
      71       24        2  0.00000000   13.48300   15.17380   27.37360    0    0    0
      72       24        2  0.00000000   14.03040   15.33980   28.90310    0    0    0
      73       25        1  0.00000000   15.16520   13.45440   26.48110    0    0    0
      74       25        2  0.00000000   14.78670   14.16090   27.07910    0    0    0
      75       25        2  0.00000000   14.41880   12.94000   26.05890    0    0    0
      76       26        1  0.00000000   12.33930   11.96130   30.85270    0    0    0
      77       26        2  0.00000000   13.20830   12.07730   30.37180    0    0    0
      78       26        2  0.00000000   12.12610   10.98700   30.92560    0    0    0
      79       27        1  0.00000000   10.71600   10.10460   23.64680    0    0    0
      80       27        2  0.00000000    9.85151    9.64503   23.85040    0    0    0
      81       27        2  0.00000000   10.67170   10.50830   22.73300    0    0    0
      82       28        1  0.00000000   10.42400    2.56806   20.43670    0    0    0
      83       28        2  0.00000000   10.65210    2.41027   21.39750    0    0    0
      84       28        2  0.00000000    9.77066    3.32208   20.36870    0    0    0
      85       29        1  0.00000000   18.10670    9.38792   28.97430    0    0    0
      86       29        2  0.00000000   17.36490    9.64603   28.35530    0    0    0
      87       29        2  0.00000000   18.21870   10.09440   29.67310    0    0    0
      88       30        1  0.00000000   13.23870   12.31710   24.39880    0    0    0
      89       30        2  0.00000000   12.70070   13.12370   24.15370    0    0    0
      90       30        2  0.00000000   12.68290   11.49520   24.27360    0    0    0
      91       31        1  0.00000000    7.01993   14.34860   27.35950    0    0    0
      92       31        2  0.00000000    7.41996   14.86180   28.11880    0    0    0
      93       31        2  0.00000000    7.40414   14.67660   26.49640    0    0    0
      94       32        1  0.00000000    6.96124    6.95545   30.49500    0    0    0
      95       32        2  0.00000000    6.84840    7.01978   29.50340    0    0    0
      96       32        2  0.00000000    6.43703    6.17702   30.84030    0    0    0
      97       33        1  0.00000000   14.91310   18.20750   31.96470    0    0    0
      98       33        2  0.00000000   15.23260   17.39080   31.48410    0    0    0
      99       33        2  0.00000000   13.93910   18.34210   31.78210    0    0    0
     100       34        1  0.00000000    8.13634   13.84870   33.21250    0    0    0
     101       34        2  0.00000000    7.45723   13.97160   32.48880    0    0    0
     102       34        2  0.00000000    8.03713   14.57760   33.88990    0    0    0
     103       35        1  0.00000000   10.57160   11.63610   21.52650    0    0    0
     104       35        2  0.00000000   11.54380   11.60260   21.29460    0    0    0
     105       35        2  0.00000000   10.21820   12.55470   21.34940    0    0    0
     106       36        1  0.00000000    4.65487   10.40980   32.64880    0    0    0
     107       36        2  0.00000000    4.37097   11.33680   32.40380    0    0    0
     108       36        2  0.00000000    3.84550    9.84387   32.80580    0    0    0
     109       37        1  0.00000000   10.61990   12.11440   25.40220    0    0    0
     110       37        2  0.00000000   10.65790   11.38820   24.71580    0    0    0
     111       37        2  0.00000000    9.67442   12.42130   25.51080    0    0    0
     112       38        1  0.00000000    6.64395   19.45940   34.56890    0    0    0
     113       38        2  0.00000000    6.52776   18.56780   34.13120    0    0    0
     114       38        2  0.00000000    5.94567   20.09030   34.23060    0    0    0
     115       39        1  0.00000000   14.48380    0.66566   19.39870    0    0    0
     116       39        2  0.00000000   13.80520    1.30801   19.75480    0    0    0
     117       39        2  0.00000000   15.40000    1.04798   19.51900    0    0    0
     118       40        1  0.00000000   19.48390   15.09420   36.16150    0    0    0
     119       40        2  0.00000000   19.54150   15.33860   35.19360    0    0    0
     120       40        2  0.00000000   19.78720   15.86690   36.71910    0    0    0
     121       41        1  0.00000000    1.67940   11.78080   29.65540    0    0    0
     122       41        2  0.00000000    1.21511   12.25370   28.90650    0    0    0
     123       41        2  0.00000000    2.05588   10.91670   29.32140    0    0    0
     124       42        1  0.00000000    0.15830   11.50060   25.63310    0    0    0
     125       42        2  0.00000000    0.90026   12.16430   25.72800    0    0    0
     126       42        2  0.00000000   -0.29243   11.62860   24.74970    0    0    0
     127       43        1  0.00000000   19.64530   14.52940   32.99250    0    0    0
     128       43        2  0.00000000   20.05930   13.68490   33.33220    0    0    0
     129       43        2  0.00000000   18.66450   14.38890   32.85750    0    0    0
     130       44        1  0.00000000   10.82450   17.57590   33.26550    0    0    0
     131       44        2  0.00000000    9.93593   17.94240   33.54130    0    0    0
     132       44        2  0.00000000   11.20230   17.02320   34.00840    0    0    0
     133       45        1  0.00000000    7.63697   15.52690   25.01500    0    0    0
     134       45        2  0.00000000    6.82712   16.06930   24.79150    0    0    0
     135       45        2  0.00000000    8.44927   15.96800   24.63340    0    0    0
     136       46        1  0.00000000   13.36120   17.10570   19.57220    0    0    0
     137       46        2  0.00000000   12.38810   17.02680   19.35580    0    0    0
     138       46        2  0.00000000   13.68320   18.02100   19.33040    0    0    0
     139       47        1  0.00000000   13.49570   16.90830   25.42970    0    0    0
     140       47        2  0.00000000   14.22120   16.62650   26.05740    0    0    0
     141       47        2  0.00000000   13.90160   17.33090   24.61930    0    0    0
     142       48        1  0.00000000   19.31870    7.51534   34.12070    0    0    0
     143       48        2  0.00000000   18.97570    8.32515   34.59670    0    0    0
     144       48        2  0.00000000   18.54940    6.99969   33.74340    0    0    0
     145       49        1  0.00000000    0.08668   10.83390   31.64020    0    0    0
     146       49        2  0.00000000    0.32885   11.30210   32.49000    0    0    0
     147       49        2  0.00000000    0.66800   11.16790   30.89830    0    0    0
     148       50        1  0.00000000    9.37480    2.91684   31.57890    0    0    0
     149       50        2  0.00000000    9.34302    2.03648   32.05210    0    0    0
     150       50        2  0.00000000    9.51349    2.76444   30.60030    0    0    0
     151       51        1  0.00000000   13.90750    4.56732   31.99260    0    0    0
     152       51        2  0.00000000   14.75650    4.83645   31.53790    0    0    0
     153       51        2  0.00000000   13.15790    5.14364   31.66720    0    0    0
     154       52        1  0.00000000   10.79310    6.87273   34.45230    0    0    0
     155       52        2  0.00000000   10.98430    5.94551   34.13030    0    0    0
     156       52        2  0.00000000   11.65260    7.37288   34.55760    0    0    0
     157       53        1  0.00000000    7.71570    1.61300   27.45810    0    0    0
     158       53        2  0.00000000    6.79687    1.98692   27.58430    0    0    0
     159       53        2  0.00000000    7.91709    1.54632   26.48080    0    0    0
     160       54        1  0.00000000   13.26250   10.75380   20.85050    0    0    0
     161       54        2  0.00000000   12.92910   10.29530   20.02670    0    0    0
     162       54        2  0.00000000   14.04630   10.25240   21.21690    0    0    0
     163       55        1  0.00000000    8.10266    7.42903   34.27470    0    0    0
     164       55        2  0.00000000    8.98493    7.05442   33.98960    0    0    0
     165       55        2  0.00000000    7.40836    6.71019   34.23980    0    0    0
     166       56        1  0.00000000   10.79260    5.90893   25.01290    0    0    0
     167       56        2  0.00000000   10.24690    5.07921   24.89560    0    0    0
     168       56        2  0.00000000   11.47390    5.96569   24.28300    0    0    0
     169       57        1  0.00000000    0.72908    4.45511   34.55760    0    0    0
     170       57        2  0.00000000    0.74142    3.99745   33.66860    0    0    0
     171       57        2  0.00000000    0.84064    5.44024   34.42690    0    0    0
     172       58        1  0.00000000    9.10352    5.32981   36.44120    0    0    0
     173       58        2  0.00000000    9.90374    5.41910   35.84820    0    0    0
     174       58        2  0.00000000    8.35984    4.89411   35.93420    0    0    0
     175       59        1  0.00000000    0.78236    3.52431   29.23790    0    0    0
     176       59        2  0.00000000    1.68443    3.77486   28.88650    0    0    0
     177       59        2  0.00000000    0.69947    2.52808   29.26340    0    0    0
     178       60        1  0.00000000    1.21795    3.09021   18.21180    0    0    0
     179       60        2  0.00000000    1.72517    3.55636   18.93670    0    0    0
     180       60        2  0.00000000    1.86138    2.66764   17.57350    0    0    0
     181       61        1  0.00000000   10.36350    7.77605   29.50440    0    0    0
     182       61        2  0.00000000   10.05270    8.66118   29.85070    0    0    0
     183       61        2  0.00000000    9.76040    7.47705   28.76490    0    0    0
     184       62        1  0.00000000    7.96736    4.76510   26.13610    0    0    0
     185       62        2  0.00000000    8.42783    5.52921   26.58790    0    0    0
     186       62        2  0.00000000    7.46899    4.22722   26.81610    0    0    0
     187       63        1  0.00000000   14.49490    1.26927   29.17030    0    0    0
     188       63        2  0.00000000   14.11470    0.64884   29.85630    0    0    0
     189       63        2  0.00000000   14.15740    1.01211   28.26480    0    0    0
     190       64        1  0.00000000   15.37870    3.54110   35.56210    0    0    0
     191       64        2  0.00000000   15.06100    2.67015   35.93690    0    0    0
     192       64        2  0.00000000   15.72250    3.39892   34.63390    0    0    0
     193       65        1  0.00000000    1.43506   11.77540   33.84250    0    0    0
     194       65        2  0.00000000    2.40748   11.99620   33.91740    0    0    0
     195       65        2  0.00000000    0.97874   11.98160   34.70810    0    0    0
     196       66        1  0.00000000    6.85402    9.33867   26.69160    0    0    0
     197       66        2  0.00000000    6.43881    8.65534   27.29220    0    0    0
     198       66        2  0.00000000    6.69818   10.25190   27.06800    0    0    0
     199       67        1  0.00000000    1.25010    4.03427   26.04610    0    0    0
     200       67        2  0.00000000    1.08715    3.26811   25.42450    0    0    0
     201       67        2  0.00000000    1.39316    3.68693   26.97290    0    0    0
     202       68        1  0.00000000    7.78165    9.34847   31.81620    0    0    0
     203       68        2  0.00000000    7.29428   10.03340   31.27460    0    0    0
     204       68        2  0.00000000    7.63562    8.44292   31.41790    0    0    0
     205       69        1  0.00000000   14.60600   12.16370   29.49120    0    0    0
     206       69        2  0.00000000   15.50620   12.56120   29.31360    0    0    0
     207       69        2  0.00000000   14.44800   11.40210   28.86260    0    0    0
     208       70        1  0.00000000    9.74232   10.48990   32.98030    0    0    0
     209       70        2  0.00000000    9.34545   11.35980   33.27290    0    0    0
     210       70        2  0.00000000    9.02145    9.90060   32.61540    0    0    0
     211       71        1  0.00000000    4.56913   11.86570   25.92190    0    0    0
     212       71        2  0.00000000    4.30690   11.03420   25.43220    0    0    0
     213       71        2  0.00000000    4.00501   11.96150   26.74200    0    0    0
     214       72        1  0.00000000   10.23540   14.49940   20.90650    0    0    0
     215       72        2  0.00000000   10.58910   14.82740   20.03060    0    0    0
     216       72        2  0.00000000    9.25384   14.68310   20.95940    0    0    0
     217       73        1  0.00000000    2.44457    8.75873   32.17830    0    0    0
     218       73        2  0.00000000    1.79162    9.46303   32.45690    0    0    0
     219       73        2  0.00000000    1.97993    7.87466   32.12790    0    0    0
     220       74        1  0.00000000   12.14280   13.71740   32.63020    0    0    0
     221       74        2  0.00000000   12.10490   14.48020   31.98470    0    0    0
     222       74        2  0.00000000   12.39570   12.88120   32.14350    0    0    0
     223       75        1  0.00000000   18.27460    5.21419   18.26920    0    0    0
     224       75        2  0.00000000   19.00540    5.89338   18.33740    0    0    0
     225       75        2  0.00000000   18.67410    4.30619   18.14320    0    0    0
     226       76        1  0.00000000   16.51310   10.54890   33.19540    0    0    0
     227       76        2  0.00000000   15.65540   10.98900   32.92920    0    0    0
     228       76        2  0.00000000   17.17470   10.63010   32.44990    0    0    0
     229       77        1  0.00000000   17.56530   14.18770   24.82360    0    0    0
     230       77        2  0.00000000   16.69950   13.76980   25.09900    0    0    0
     231       77        2  0.00000000   17.39020   15.09340   24.43750    0    0    0
     232       78        1  0.00000000   12.18540   13.34320   27.42330    0    0    0
     233       78        2  0.00000000   12.78650   12.71700   27.91990    0    0    0
     234       78        2  0.00000000   11.58540   12.81970   26.81820    0    0    0
     235       79        1  0.00000000    7.79248   12.22750   25.04300    0    0    0
     236       79        2  0.00000000    7.46685   12.93250   24.41300    0    0    0
     237       79        2  0.00000000    7.05617   11.97600   25.67120    0    0    0
     238       80        1  0.00000000    0.91771    7.87709   20.67250    0    0    0
     239       80        2  0.00000000    1.47295    7.51572   19.92340    0    0    0
     240       80        2  0.00000000    0.55414    7.11889   21.21370    0    0    0
     241       81        1  0.00000000    7.99578    9.58675   24.36330    0    0    0
     242       81        2  0.00000000    7.60534   10.50060   24.47500    0    0    0
     243       81        2  0.00000000    7.51695    8.94433   24.96170    0    0    0
     244       82        1  0.00000000    8.93119   16.02830   31.73540    0    0    0
     245       82        2  0.00000000    8.69472   15.16620   32.18350    0    0    0
     246       82        2  0.00000000    9.76522   16.39870   32.14430    0    0    0
     247       83        1  0.00000000   11.90140   15.06460   29.90180    0    0    0
     248       83        2  0.00000000   11.11980   15.63020   29.63870    0    0    0
     249       83        2  0.00000000   12.06570   14.37450   29.19710    0    0    0
     250       84        1  0.00000000   15.54130   12.69920   22.40270    0    0    0
     251       84        2  0.00000000   14.55180   12.83270   22.45730    0    0    0
     252       84        2  0.00000000   15.96000   13.48870   21.95410    0    0    0
     253       85        1  0.00000000   14.16460   14.29500   34.26630    0    0    0
     254       85        2  0.00000000   13.97670   15.25340   34.48120    0    0    0
     255       85        2  0.00000000   13.56870   13.99760   33.52030    0    0    0
     256       86        1  0.00000000    1.59086   18.35370   21.02980    0    0    0
     257       86        2  0.00000000    0.74635   18.29740   20.49720    0    0    0
     258       86        2  0.00000000    2.12197   19.14600   20.72970    0    0    0
     259       87        1  0.00000000    0.25420   -0.20772   34.85790    0    0    0
     260       87        2  0.00000000    1.07033    0.00966   35.39340    0    0    0
     261       87        2  0.00000000   -0.56266    0.01007   35.39210    0    0    0
     262       88        1  0.00000000   14.49550   16.01430   21.84080    0    0    0
     263       88        2  0.00000000   13.98740   16.34780   21.04670    0    0    0
     264       88        2  0.00000000   13.87000   15.54370   22.46310    0    0    0
     265       89        1  0.00000000    2.59515   17.45350   34.19660    0    0    0
     266       89        2  0.00000000    2.90790   17.20190   33.28060    0    0    0
     267       89        2  0.00000000    1.65698   17.79590   34.14610    0    0    0
     268       90        1  0.00000000    7.64360   15.83780   34.93130    0    0    0
     269       90        2  0.00000000    7.24181   15.15330   35.53960    0    0    0
     270       90        2  0.00000000    6.91810   16.28800   34.41070    0    0    0
     271       91        1  0.00000000    7.30808   14.95350   21.19430    0    0    0
     272       91        2  0.00000000    6.58575   14.66840   21.82430    0    0    0
     273       91        2  0.00000000    7.16306   15.90710   20.93040    0    0    0
     274       92        1  0.00000000   11.58460    4.39762   30.11920    0    0    0
     275       92        2  0.00000000   11.50580    3.82046   30.93200    0    0    0
     276       92        2  0.00000000   11.06250    3.99075   29.36960    0    0    0
     277       93        1  0.00000000   15.85590    6.08079   22.73430    0    0    0
     278       93        2  0.00000000   16.12550    6.04833   21.77190    0    0    0
     279       93        2  0.00000000   15.05760    5.49558   22.87680    0    0    0
     280       94        1  0.00000000   10.69230   16.54240   19.16480    0    0    0
     281       94        2  0.00000000   10.24250   16.70110   18.28590    0    0    0
     282       94        2  0.00000000   10.32910   17.17910   19.84490    0    0    0
     283       95        1  0.00000000    9.33830    5.52680   31.86920    0    0    0
     284       95        2  0.00000000    9.14069    4.54739   31.82770    0    0    0
     285       95        2  0.00000000    8.84713    5.99727   31.13610    0    0    0
     286       96        1  0.00000000   14.02930    3.58774   23.44460    0    0    0
     287       96        2  0.00000000   13.11510    3.25365   23.67390    0    0    0
     288       96        2  0.00000000   14.56550    3.69307   24.28210    0    0    0
     289       97        1  0.00000000   10.06780   17.96790   23.06540    0    0    0
     290       97        2  0.00000000   10.95420   17.92810   22.60420    0    0    0
     291       97        2  0.00000000    9.33723   17.98240   22.38260    0    0    0
     292       98        1  0.00000000   17.26410    5.79246   33.20290    0    0    0
     293       98        2  0.00000000   16.76820    5.04751   33.64910    0    0    0
     294       98        2  0.00000000   16.84520    5.98753   32.31610    0    0    0
     295       99        1  0.00000000   13.98580   10.38970   27.76830    0    0    0
     296       99        2  0.00000000   13.09430   10.09830   27.42140    0    0    0
     297       99        2  0.00000000   14.71010    9.95805   27.23060    0    0    0
     298      100        1  0.00000000    2.87036    9.22758   18.88320    0    0    0
     299      100        2  0.00000000    3.30990    9.66237   18.09720    0    0    0
     300      100        2  0.00000000    3.18843    8.28284   18.96250    0    0    0
     301      101        1  0.00000000   18.81160   15.73880   28.59010    0    0    0
     302      101        2  0.00000000   19.15480   14.95680   28.06980    0    0    0
     303      101        2  0.00000000   18.55140   16.47020   27.95980    0    0    0
     304      102        1  0.00000000    4.34022   17.48720   27.05750    0    0    0
     305      102        2  0.00000000    4.79033   17.38050   26.17090    0    0    0
     306      102        2  0.00000000    3.51572   18.04240   26.94800    0    0    0
     307      103        1  0.00000000    1.46241   14.18470   25.05230    0    0    0
     308      103        2  0.00000000    0.46852   14.29360   25.07060    0    0    0
     309      103        2  0.00000000    1.79133   14.28320   24.11310    0    0    0
     310      104        1  0.00000000    4.07752   16.70130   36.81700    0    0    0
     311      104        2  0.00000000    3.69102   15.86100   37.19700    0    0    0
     312      104        2  0.00000000    3.49672   17.02790   36.07130    0    0    0
     313      105        1  0.00000000    9.31336   18.74540   19.75940    0    0    0
     314      105        2  0.00000000    8.51343   18.96290   20.31870    0    0    0
     315      105        2  0.00000000    9.90768   19.54750   19.70150    0    0    0
     316      106        1  0.00000000   10.99500   13.30710   35.28820    0    0    0
     317      106        2  0.00000000   11.18300   13.15550   34.31780    0    0    0
     318      106        2  0.00000000   11.26930   12.49990   35.81090    0    0    0
     319      107        1  0.00000000   13.47490   16.80970   34.68500    0    0    0
     320      107        2  0.00000000   13.26730   17.28520   35.53990    0    0    0
     321      107        2  0.00000000   13.85440   17.45910   34.02610    0    0    0