Created by /home/tpascal/scripts/createLammpsInput.pl on Mon Nov  7 14:10:12 2022

        1920 atoms
        1273 bonds
         647 angles
           7 impropers

           5 atom types
           2 bond types
           2 angle types
           1 improper types

		   0.000000  18.774350 xlo xhi
		   0.000000  18.774350 ylo yhi
		  20.000000  76.323000 zlo zhi

Masses

    1 1.0080E+00 # HW     
    2 1.5995E+01 # OW     
    3 1.2011E+01 # C_C    
    4 1.5999E+01 # O_2C   
    5 2.2990E+01 # Na+    


Bond Coeffs

    1   0.9572   556.85 -1419.97   2112.2 # OW HW 
    2     1.31      505 -1287.75  1915.53 # C_C O_2C 

Angle Coeffs

    1        0        0    108.5     48.7 -39.0643  8.95287 -6.41202  11.5463 # HW OW HW 
    2        0        0      120      120 -96.2569  22.0605 -15.7996  28.4508 # O_2C C_C O_2C 

Improper Coeffs

    1      242 # C_C O_2C O_2C O_2C 

BondAngle Coeffs

    1        0        0        0        0  # HW OW HW 
    2     18.7     18.7     1.31     1.31  # O_2C C_C O_2C 

UreyBradley Coeffs

    1        0        0  # HW OW HW 
    2        0        0  # O_2C C_C O_2C 

Atoms

       1        1        1  0.00000000    9.34280    8.27098   24.75520    0    0    0
       2        1        1  0.00000000    9.54801    9.83394   25.18140    0    0    0
       3        1        2  0.00000000    8.93959    9.18555   24.72380    0    0    0
       4        2        1  0.00000000    3.13872   11.21070   26.42680    0    0    0
       5        2        1  0.00000000    2.99516    9.73678   27.11500    0    0    0
       6        2        2  0.00000000    2.59038   10.64860   27.04600    0    0    0
       7        3        1  0.00000000   14.76540   13.19440   24.77370    0    0    0
       8        3        1  0.00000000   16.06830   14.01970   24.23700    0    0    0
       9        3        2  0.00000000   15.42510   13.91270   24.99510    0    0    0
      10        4        1  0.00000000    6.18504   15.90070   29.09350    0    0    0
      11        4        1  0.00000000    5.49626   14.43310   29.28860    0    0    0
      12        4        2  0.00000000    5.55138   15.36370   29.65030    0    0    0
      13        5        1  0.00000000    8.97608   16.97750   24.90060    0    0    0
      14        5        1  0.00000000   10.60410   16.88970   24.99220    0    0    0
      15        5        2  0.00000000    9.75322   16.36890   25.06110    0    0    0
      16        6        1  0.00000000    8.62377   13.54850   26.84790    0    0    0
      17        6        1  0.00000000    7.10528   13.60410   27.44600    0    0    0
      18        6        2  0.00000000    8.07514   13.55180   27.68400    0    0    0
      19        7        1  0.00000000    1.59674    3.57143   30.01400    0    0    0
      20        7        1  0.00000000    1.20080    1.99134   29.89930    0    0    0
      21        7        2  0.00000000    1.95889    2.64150   29.95020    0    0    0
      22        8        1  0.00000000   14.48390    4.30195   24.67010    0    0    0
      23        8        1  0.00000000   13.48310    4.92104   23.53800    0    0    0
      24        8        2  0.00000000   13.82050    5.02391   24.47370    0    0    0
      25        9        1  0.00000000    2.79971    5.84492   29.57450    0    0    0
      26        9        1  0.00000000    4.38034    5.69315   29.95560    0    0    0
      27        9        2  0.00000000    3.46189    5.83747   30.32390    0    0    0
      28       10        1  0.00000000    7.46347    6.75646   27.92240    0    0    0
      29       10        1  0.00000000    7.46838    7.71398   26.59960    0    0    0
      30       10        2  0.00000000    7.90045    6.92650   27.03910    0    0    0
      31       11        1  0.00000000   18.51440    4.81466   29.33900    0    0    0
      32       11        1  0.00000000   19.87300    5.55602   28.81820    0    0    0
      33       11        2  0.00000000   19.49550    4.92649   29.49730    0    0    0
      34       12        1  0.00000000   11.18390   10.96770   21.51090    0    0    0
      35       12        1  0.00000000   11.39130   10.69190   23.10700    0    0    0
      36       12        2  0.00000000   10.71920   10.88680   22.39270    0    0    0
      37       13        1  0.00000000    5.15837   12.13960   28.76390    0    0    0
      38       13        1  0.00000000    4.80397   10.54720   28.83650    0    0    0
      39       13        2  0.00000000    4.88744   11.39020   29.36800    0    0    0
      40       14        1  0.00000000   13.01210    6.47905   26.73230    0    0    0
      41       14        1  0.00000000   14.43560    6.00933   27.38020    0    0    0
      42       14        2  0.00000000   13.47900    6.22302   27.57870    0    0    0
      43       15        1  0.00000000    4.96730    1.87231   29.83860    0    0    0
      44       15        1  0.00000000    5.38858    3.28908   30.53280    0    0    0
      45       15        2  0.00000000    5.00987    2.37876   30.69980    0    0    0
      46       16        1  0.00000000    3.96835   15.12060   31.87600    0    0    0
      47       16        1  0.00000000    5.47204   14.94390   32.48780    0    0    0
      48       16        2  0.00000000    4.52089   14.64360   32.55940    0    0    0
      49       17        1  0.00000000    2.65860   12.14800   21.81710    0    0    0
      50       17        1  0.00000000    1.65580   13.03560   20.88270    0    0    0
      51       17        2  0.00000000    2.58511   12.96500   21.24520    0    0    0
      52       18        1  0.00000000   15.69790   14.31670   26.71760    0    0    0
      53       18        1  0.00000000   16.71600   14.90530   27.85060    0    0    0
      54       18        2  0.00000000   15.83770   14.45210   27.69850    0    0    0
      55       19        1  0.00000000   17.19900    6.84038   27.91180    0    0    0
      56       19        1  0.00000000   18.68720    7.48540   28.10150    0    0    0
      57       19        2  0.00000000   17.79130    7.35999   28.52770    0    0    0
      58       20        1  0.00000000    3.88087    2.21326   22.95430    0    0    0
      59       20        1  0.00000000    4.14616    0.89011   23.87380    0    0    0
      60       20        2  0.00000000    3.51177    1.63990   23.68570    0    0    0
      61       21        1  0.00000000   12.80640   19.15830   28.97280    0    0    0
      62       21        1  0.00000000   11.60780   18.04970   28.93960    0    0    0
      63       21        2  0.00000000   12.59730   18.18420   28.88620    0    0    0
      64       22        1  0.00000000   18.89800   11.62400   23.68760    0    0    0
      65       22        1  0.00000000   17.91650   12.92910   23.67920    0    0    0
      66       22        2  0.00000000   17.95830   11.93980   23.81870    0    0    0
      67       23        1  0.00000000   13.38830   11.50060   28.06650    0    0    0
      68       23        1  0.00000000   12.10380   12.43400   28.44790    0    0    0
      69       23        2  0.00000000   12.46740   11.50250   28.45640    0    0    0
      70       24        1  0.00000000    8.16673    8.61271   19.50120    0    0    0
      71       24        1  0.00000000    9.46356    8.15056   20.37950    0    0    0
      72       24        2  0.00000000    8.81657    8.89343   20.20760    0    0    0
      73       25        1  0.00000000   10.47850    6.09776   21.10290    0    0    0
      74       25        1  0.00000000    9.20515    5.15281   20.71290    0    0    0
      75       25        2  0.00000000   10.12500    5.43614   20.44170    0    0    0
      76       26        1  0.00000000   17.77610   10.50480   29.00790    0    0    0
      77       26        1  0.00000000   17.42940    8.92429   29.22770    0    0    0
      78       26        2  0.00000000   17.24430    9.85313   29.54870    0    0    0
      79       27        1  0.00000000   14.00750    9.43016   22.71600    0    0    0
      80       27        1  0.00000000   14.51100   10.75810   23.52200    0    0    0
      81       27        2  0.00000000   14.70780    9.79700   23.32830    0    0    0
      82       28        1  0.00000000    5.27772   12.59520   26.97940    0    0    0
      83       28        1  0.00000000    5.11809   14.20110   27.22880    0    0    0
      84       28        2  0.00000000    5.32066   13.32350   27.66330    0    0    0
      85       29        1  0.00000000    5.91686    5.89790   31.44440    0    0    0
      86       29        1  0.00000000    4.79850    5.24477   32.43900    0    0    0
      87       29        2  0.00000000    5.71630    5.63865   32.38920    0    0    0
      88       30        1  0.00000000   14.91490   15.96860   28.74250    0    0    0
      89       30        1  0.00000000   14.23670   17.41420   29.08440    0    0    0
      90       30        2  0.00000000   15.02290   16.82040   29.25520    0    0    0
      91       31        1  0.00000000    4.99762   11.45180   34.02070    0    0    0
      92       31        1  0.00000000    4.73857   12.51960   32.81260    0    0    0
      93       31        2  0.00000000    4.93328   11.56290   33.02890    0    0    0
      94       32        1  0.00000000   13.74830    8.85462   21.20520    0    0    0
      95       32        1  0.00000000   13.68740    9.54475   19.72650    0    0    0
      96       32        2  0.00000000   14.23150    8.96953   20.33720    0    0    0
      97       33        1  0.00000000    3.22884    8.41771   32.13210    0    0    0
      98       33        1  0.00000000    3.55387    9.69376   33.09780    0    0    0
      99       33        2  0.00000000    3.95597    8.98684   32.51600    0    0    0
     100       34        1  0.00000000    9.66251   13.51850   24.37970    0    0    0
     101       34        1  0.00000000    9.57299   14.58860   25.60990    0    0    0
     102       34        2  0.00000000    9.60041   13.61750   25.37290    0    0    0
     103       35        1  0.00000000    8.43059   14.24810   33.55680    0    0    0
     104       35        1  0.00000000    7.47324   15.57050   33.59250    0    0    0
     105       35        2  0.00000000    7.69650   14.71150   34.05320    0    0    0
     106       36        1  0.00000000   18.88580   -1.73303   21.71300    0    0    0
     107       36        1  0.00000000   19.12950   -1.08078   23.19010    0    0    0
     108       36        2  0.00000000   18.64780   -1.79505   22.68230    0    0    0
     109       37        1  0.00000000   17.78060   20.80790   35.57920    0    0    0
     110       37        1  0.00000000   18.05890   19.27790   35.08080    0    0    0
     111       37        2  0.00000000   18.02340   20.23580   34.79580    0    0    0
     112       38        1  0.00000000    0.74432   11.22660   27.46150    0    0    0
     113       38        1  0.00000000   -0.82548   10.82850   27.25200    0    0    0
     114       38        2  0.00000000   -0.16874   11.26420   27.86750    0    0    0
     115       39        1  0.00000000    2.65816   12.60360   24.71260    0    0    0
     116       39        1  0.00000000    3.64246   13.34130   25.78660    0    0    0
     117       39        2  0.00000000    2.70033   13.26690   25.45970    0    0    0
     118       40        1  0.00000000   16.48300   15.12760   33.44840    0    0    0
     119       40        1  0.00000000   17.82680   15.96210   33.85410    0    0    0
     120       40        2  0.00000000   17.04170   15.45540   34.21030    0    0    0
     121       41        1  0.00000000   10.51980   14.95720   31.41910    0    0    0
     122       41        1  0.00000000    9.90354   16.20510   32.27330    0    0    0
     123       41        2  0.00000000    9.87284   15.21490   32.13670    0    0    0
     124       42        1  0.00000000   12.07850   17.32650   22.18050    0    0    0
     125       42        1  0.00000000   13.40610   16.65180   21.51050    0    0    0
     126       42        2  0.00000000   12.92190   16.82320   22.36850    0    0    0
     127       43        1  0.00000000    4.74491   16.17320   25.73740    0    0    0
     128       43        1  0.00000000    3.61399   15.77170   26.84490    0    0    0
     129       43        2  0.00000000    4.52548   15.55720   26.49400    0    0    0
     130       44        1  0.00000000   13.79190   12.49920   22.59790    0    0    0
     131       44        1  0.00000000   12.51160   12.53270   23.61090    0    0    0
     132       44        2  0.00000000   13.47330   12.27460   23.51880    0    0    0
     133       45        1  0.00000000   14.47210   15.47180   24.83430    0    0    0
     134       45        1  0.00000000   13.43880   16.29530   23.87470    0    0    0
     135       45        2  0.00000000   13.96000   16.32410   24.72760    0    0    0
     136       46        1  0.00000000   17.40100    6.10019   32.86750    0    0    0
     137       46        1  0.00000000   16.28310    4.97733   32.47260    0    0    0
     138       46        2  0.00000000   16.43230    5.85805   32.92210    0    0    0
     139       47        1  0.00000000    2.80032   12.04270   30.15010    0    0    0
     140       47        1  0.00000000    1.67229   11.85050   28.98510    0    0    0
     141       47        2  0.00000000    1.92525   12.37490   29.79810    0    0    0
     142       48        1  0.00000000    8.42181    7.04353   31.32570    0    0    0
     143       48        1  0.00000000    8.56565    5.56789   32.01010    0    0    0
     144       48        2  0.00000000    9.01743    6.44812   31.86490    0    0    0
     145       49        1  0.00000000   14.24920    5.51483   31.36990    0    0    0
     146       49        1  0.00000000   15.00530    6.94766   31.57480    0    0    0
     147       49        2  0.00000000   14.39230    6.42535   30.98190    0    0    0
     148       50        1  0.00000000   14.89080    8.34320   35.12560    0    0    0
     149       50        1  0.00000000   13.79110    8.88334   36.20520    0    0    0
     150       50        2  0.00000000   14.19490    8.06857   35.78920    0    0    0
     151       51        1  0.00000000    7.46187    0.85174   21.98550    0    0    0
     152       51        1  0.00000000    7.32763    1.42248   20.46140    0    0    0
     153       51        2  0.00000000    7.78791    0.75370   21.04530    0    0    0
     154       52        1  0.00000000    7.74029    3.04602   28.87000    0    0    0
     155       52        1  0.00000000    7.41464    1.46372   28.63150    0    0    0
     156       52        2  0.00000000    8.04499    2.11232   29.05810    0    0    0
     157       53        1  0.00000000   12.43480    7.80795   22.94910    0    0    0
     158       53        1  0.00000000   11.56370    8.44841   21.72540    0    0    0
     159       53        2  0.00000000   12.35010    8.58659   22.32740    0    0    0
     160       54        1  0.00000000    5.22047    7.99635   33.45610    0    0    0
     161       54        1  0.00000000    6.02792    6.69300   34.01820    0    0    0
     162       54        2  0.00000000    5.84477    7.66527   34.16370    0    0    0
     163       55        1  0.00000000   11.25190    7.25117   24.93690    0    0    0
     164       55        1  0.00000000   12.66260    6.44696   24.76450    0    0    0
     165       55        2  0.00000000   12.16930    7.12188   25.31330    0    0    0
     166       56        1  0.00000000   11.97200    5.63206   35.90660    0    0    0
     167       56        1  0.00000000   12.47220    7.18597   35.94890    0    0    0
     168       56        2  0.00000000   11.67800    6.58625   35.85110    0    0    0
     169       57        1  0.00000000   -3.01415    1.69355   25.55040    0    0    0
     170       57        1  0.00000000   -2.26907    3.12284   25.28850    0    0    0
     171       57        2  0.00000000   -3.05558    2.67862   25.71750    0    0    0
     172       58        1  0.00000000    1.65869    5.88920   18.76390    0    0    0
     173       58        1  0.00000000    1.32115    4.29794   18.90730    0    0    0
     174       58        2  0.00000000    0.92504    5.21277   18.82860    0    0    0
     175       59        1  0.00000000   11.26580    8.41297   27.22330    0    0    0
     176       59        1  0.00000000   11.13730    6.95337   27.94420    0    0    0
     177       59        2  0.00000000   11.17650    7.94037   28.10000    0    0    0
     178       60        1  0.00000000    7.14904    2.66290   25.36500    0    0    0
     179       60        1  0.00000000    7.02287    3.64435   26.66410    0    0    0
     180       60        2  0.00000000    7.48747    3.50248   25.79000    0    0    0
     181       61        1  0.00000000   10.02350    4.76520   28.07100    0    0    0
     182       61        1  0.00000000   11.46800    4.16953   27.59650    0    0    0
     183       61        2  0.00000000   10.72760    4.79939   27.36170    0    0    0
     184       62        1  0.00000000   15.89950    0.45086   31.13850    0    0    0
     185       62        1  0.00000000   14.62090    1.17696   30.42800    0    0    0
     186       62        2  0.00000000   15.33930    1.27895   31.11610    0    0    0
     187       63        1  0.00000000    2.13598   13.53860   35.44590    0    0    0
     188       63        1  0.00000000    1.49339   12.59710   36.61520    0    0    0
     189       63        2  0.00000000    2.20367   12.65750   35.91390    0    0    0
     190       64        1  0.00000000    4.67393    7.90800   28.51460    0    0    0
     191       64        1  0.00000000    5.01142    8.70503   27.12980    0    0    0
     192       64        2  0.00000000    4.34244    8.59169   27.86440    0    0    0
     193       65        1  0.00000000    6.20174    7.30044   29.64720    0    0    0
     194       65        1  0.00000000    7.30690    8.50010   29.72500    0    0    0
     195       65        2  0.00000000    6.45577    8.14753   30.11400    0    0    0
     196       66        1  0.00000000   15.49940   12.66150   27.62910    0    0    0
     197       66        1  0.00000000   15.49030   11.11120   27.11620    0    0    0
     198       66        2  0.00000000   14.92350   11.86340   27.45220    0    0    0
     199       67        1  0.00000000   12.23750   12.00020   33.84890    0    0    0
     200       67        1  0.00000000   11.74400   11.32290   32.44730    0    0    0
     201       67        2  0.00000000   12.45190   11.31420   33.15360    0    0    0
     202       68        1  0.00000000   15.09790    7.50728   19.66280    0    0    0
     203       68        1  0.00000000   16.62550    7.04535   20.00880    0    0    0
     204       68        2  0.00000000   15.74350    6.74377   19.64670    0    0    0
     205       69        1  0.00000000    7.37732    9.17191   25.39090    0    0    0
     206       69        1  0.00000000    5.95541    9.95399   25.57300    0    0    0
     207       69        2  0.00000000    6.48287    9.14661   25.83740    0    0    0
     208       70        1  0.00000000    8.98595   11.69010   18.42790    0    0    0
     209       70        1  0.00000000    9.14203   10.56060   19.59690    0    0    0
     210       70        2  0.00000000    9.59045   11.32700   19.13700    0    0    0
     211       71        1  0.00000000    0.13780    7.13495   32.33290    0    0    0
     212       71        1  0.00000000    0.19187    5.60979   31.75190    0    0    0
     213       71        2  0.00000000    0.30476    6.17729   32.56750    0    0    0
     214       72        1  0.00000000   11.65480   12.83360   30.53750    0    0    0
     215       72        1  0.00000000   10.07960   12.40540   30.58200    0    0    0
     216       72        2  0.00000000   10.84150   12.77170   31.11610    0    0    0
     217       73        1  0.00000000   18.64030    6.84144   23.87530    0    0    0
     218       73        1  0.00000000   19.00050    8.43065   23.98180    0    0    0
     219       73        2  0.00000000   18.80450    7.67824   23.35290    0    0    0
     220       74        1  0.00000000   15.83280   11.39860   21.32270    0    0    0
     221       74        1  0.00000000   16.12440   13.00100   21.20460    0    0    0
     222       74        2  0.00000000   15.41850   12.29410   21.15990    0    0    0
     223       75        1  0.00000000   11.12190   11.14700   26.56320    0    0    0
     224       75        1  0.00000000    9.91359   11.92150   25.78430    0    0    0
     225       75        2  0.00000000   10.37470   11.04270   25.90690    0    0    0
     226       76        1  0.00000000    9.69007   12.32880   22.41040    0    0    0
     227       76        1  0.00000000    9.26790   13.87690   22.10720    0    0    0
     228       76        2  0.00000000    9.21979   13.13300   22.77380    0    0    0
     229       77        1  0.00000000    3.90181   10.48820   22.37250    0    0    0
     230       77        1  0.00000000    3.28635    9.23743   21.52190    0    0    0
     231       77        2  0.00000000    3.69329   10.14850   21.45530    0    0    0
     232       78        1  0.00000000    5.97317    8.79869   23.55850    0    0    0
     233       78        1  0.00000000    5.63042    7.21288   23.37310    0    0    0
     234       78        2  0.00000000    6.15522    7.98270   23.00980    0    0    0
     235       79        1  0.00000000   11.47570   15.01790   27.77200    0    0    0
     236       79        1  0.00000000   10.47150   13.73100   27.81920    0    0    0
     237       79        2  0.00000000   11.20000   14.21640   28.30260    0    0    0
     238       80        1  0.00000000   12.03800   15.14420   29.82750    0    0    0
     239       80        1  0.00000000   12.44950   16.55970   30.53010    0    0    0
     240       80        2  0.00000000   12.36650   15.57290   30.66910    0    0    0
     241       81        1  0.00000000   14.44310   12.86920   18.05060    0    0    0
     242       81        1  0.00000000   14.97780   12.03530   19.34880    0    0    0
     243       81        2  0.00000000   14.19240   12.20290   18.75290    0    0    0
     244       82        1  0.00000000   14.25910   14.22070   33.24670    0    0    0
     245       82        1  0.00000000   14.43980   14.80840   31.73390    0    0    0
     246       82        2  0.00000000   14.92040   14.43820   32.52880    0    0    0
     247       83        1  0.00000000   -0.51516   21.01430   20.53020    0    0    0
     248       83        1  0.00000000    0.17680   20.52370   21.92560    0    0    0
     249       83        2  0.00000000    0.08562   20.33290   20.94820    0    0    0
     250       84        1  0.00000000    0.36826    2.90096   32.26530    0    0    0
     251       84        1  0.00000000    0.30933    2.35927   33.80470    0    0    0
     252       84        2  0.00000000    0.87081    2.83452   33.12730    0    0    0
     253       85        1  0.00000000   15.79210    9.55544   20.49750    0    0    0
     254       85        1  0.00000000   16.88950    9.50431   21.70560    0    0    0
     255       85        2  0.00000000   16.70590    9.84415   20.78330    0    0    0
     256       86        1  0.00000000    0.48875   15.58950   31.97620    0    0    0
     257       86        1  0.00000000    1.19263   16.89260   32.66410    0    0    0
     258       86        2  0.00000000    0.33931   16.37970   32.57070    0    0    0
     259       87        1  0.00000000    9.18123   14.44640   35.85720    0    0    0
     260       87        1  0.00000000   10.14300   13.13270   35.73110    0    0    0
     261       87        2  0.00000000    9.57970   13.67540   36.35410    0    0    0
     262       88        1  0.00000000    5.25344   16.16560   21.54460    0    0    0
     263       88        1  0.00000000    6.01612   16.09150   20.10250    0    0    0
     264       88        2  0.00000000    5.63143   15.55190   20.85140    0    0    0
     265       89        1  0.00000000   10.61640    6.32716   30.83590    0    0    0
     266       89        1  0.00000000   11.84430    5.26115   30.98600    0    0    0
     267       89        2  0.00000000   11.49180    6.03090   30.45380    0    0    0
     268       90        1  0.00000000    8.20077   16.11740   22.53590    0    0    0
     269       90        1  0.00000000    8.51935   15.89090   20.95040    0    0    0
     270       90        2  0.00000000    8.80088   15.65780   21.88120    0    0    0
     271       91        1  0.00000000    9.57253    8.50019   30.22440    0    0    0
     272       91        1  0.00000000    9.38754    8.14322   28.64170    0    0    0
     273       91        2  0.00000000    8.90941    8.39368   29.48350    0    0    0
     274       92        1  0.00000000   11.47460    4.86123   24.04010    0    0    0
     275       92        1  0.00000000   11.49730    3.67695   25.16420    0    0    0
     276       92        2  0.00000000   10.94350    4.12760   24.46400    0    0    0
     277       93        1  0.00000000    6.64919   17.83490   24.30390    0    0    0
     278       93        1  0.00000000    7.78770   19.00010   24.19180    0    0    0
     279       93        2  0.00000000    7.61174   18.01950   24.10540    0    0    0
     280       94        1  0.00000000   14.85280    8.46015   24.55970    0    0    0
     281       94        1  0.00000000   13.73780    7.91268   25.61970    0    0    0
     282       94        2  0.00000000   14.71700    8.01288   25.44370    0    0    0
     283       95        1  0.00000000    6.25893    9.07750   17.49220    0    0    0
     284       95        1  0.00000000    5.82828    8.22344   18.81580    0    0    0
     285       95        2  0.00000000    6.55450    8.76785   18.39600    0    0    0
     286       96        1  0.00000000   18.00940   15.69200   23.51740    0    0    0
     287       96        1  0.00000000   18.09920   14.73160   24.83500    0    0    0
     288       96        2  0.00000000   17.83530   14.77310   23.87140    0    0    0
     289       97        1  0.00000000    6.22831   19.64260   27.26410    0    0    0
     290       97        1  0.00000000    5.04876   18.87580   28.09310    0    0    0
     291       97        2  0.00000000    5.93895   19.32530   28.16720    0    0    0
     292       98        1  0.00000000    1.74280   10.28420   25.31970    0    0    0
     293       98        1  0.00000000    1.79468    9.09650   24.20020    0    0    0
     294       98        2  0.00000000    1.19587    9.62943   24.79800    0    0    0
     295       99        1  0.00000000    6.63842   17.80110   33.10070    0    0    0
     296       99        1  0.00000000    5.36927   17.10410   33.85570    0    0    0
     297       99        2  0.00000000    6.15438   16.94040   33.25840    0    0    0
     298      100        1  0.00000000    8.25523   17.13960   18.79070    0    0    0
     299      100        1  0.00000000    7.80883   18.06280   20.06160    0    0    0
     300      100        2  0.00000000    7.66133   17.19140   19.59360    0    0    0
     301      101        1  0.00000000    9.51258   11.73800   33.76510    0    0    0
     302      101        1  0.00000000   10.36400   12.85590   32.93330    0    0    0
     303      101        2  0.00000000    9.99732   12.61020   33.83060    0    0    0
     304      102        1  0.00000000   13.48410   13.73340   35.37230    0    0    0
     305      102        1  0.00000000   12.32550   14.43150   34.45750    0    0    0
     306      102        2  0.00000000   13.06730   13.76090   34.46370    0    0    0
     307      103        1  0.00000000   18.25510   14.25200   21.75910    0    0    0
     308      103        1  0.00000000   18.28860   13.36160   20.39060    0    0    0
     309      103        2  0.00000000   17.71160   13.91700   20.98940    0    0    0
     310      104        1  0.00000000    2.08189   10.82560   35.08210    0    0    0
     311      104        1  0.00000000    2.53181    9.26426   35.24420    0    0    0
     312      104        2  0.00000000    1.79636    9.87601   34.95290    0    0    0
     313      105        1  0.00000000    6.47275   10.63780   22.70690    0    0    0
     314      105        1  0.00000000    6.38213   11.48540   21.31410    0    0    0
     315      105        2  0.00000000    6.82974   10.72000   21.77640    0    0    0
     316      106        1  0.00000000    8.10303   10.94660   30.82000    0    0    0
     317      106        1  0.00000000    8.87623   10.18720   32.04150    0    0    0
     318      106        2  0.00000000    7.99732   10.55010   31.73190    0    0    0
     319      107        1  0.00000000   11.18180   11.34540   19.71950    0    0    0
     320      107        1  0.00000000   12.80150   11.33500   19.51220    0    0    0
     321      107        2  0.00000000   12.05770   11.11480   20.14330    0    0    0
     322      108        1  0.00000000   15.55600   11.90090   35.66580    0    0    0
     323      108        1  0.00000000   15.91350   13.16160   36.64020    0    0    0
     324      108        2  0.00000000   15.26660   12.41800   36.47140    0    0    0
     325      109        1  0.00000000    1.90344    5.30142   35.07100    0    0    0
     326      109        1  0.00000000    1.47620    6.31478   33.86390    0    0    0
     327      109        2  0.00000000    2.22505    6.02446   34.45960    0    0    0
     328      110        1  0.00000000    2.87449    4.87601   33.38060    0    0    0
     329      110        1  0.00000000    3.05556    4.90561   31.75800    0    0    0
     330      110        2  0.00000000    3.31780    4.43482   32.60040    0    0    0
     331      111        1  0.00000000    5.01153    8.46857   15.57890    0    0    0