[1759347082.854522] [login02:50814:0]            sys.c:880  UCX  ERROR shmget(size=12288 flags=0x7b0) for mm_recv_fifo failed: No space left on device, please check shared memory limits by 'ipcs -l'
[1759347083.005783] [login02:50814:0]        mm_sysv.c:104  UCX  ERROR failed to allocate 8447 bytes with mm for mm_recv_fifo
[1759347083.167968] [login02:50814:0]        uct_mem.c:147  UCX  ERROR failed to allocate 8447 bytes using md sysv for mm_recv_fifo: Out of memory
[1759347083.270746] [login02:50814:0]       mm_iface.c:625  UCX  ERROR mm_iface failed to allocate receive FIFO

     Program BANDS v.7.3.1 starts on  1Oct2025 at 12:31:23 

     This program is part of the open-source Quantum ESPRESSO suite
     for quantum simulation of materials; please cite
         "P. Giannozzi et al., J. Phys.:Condens. Matter 21 395502 (2009);
         "P. Giannozzi et al., J. Phys.:Condens. Matter 29 465901 (2017);
         "P. Giannozzi et al., J. Chem. Phys. 152 154105 (2020);
          URL http://www.quantum-espresso.org", 
     in publications or presentations arising from this work. More details at
     http://www.quantum-espresso.org/quote

     Parallel version (MPI), running on     1 processors

     MPI processes distributed on     1 nodes
     21262 MiB available memory on the printing compute node when the environment starts


     Reading xml data from directory:

     Out/system.save/

     IMPORTANT: XC functional enforced from input :
     Exchange-correlation= PBE
                           (   1   4   3   4   0   0   0)
     Any further DFT definition will be discarded
     Please, verify this is what you really want


     G-vector sticks info
     --------------------
     sticks:   dense  smooth     PW     G-vecs:    dense   smooth      PW
     Sum        2129    2129    593                74125    74125   11075

     Using Slab Decomposition

     Reading collected, re-writing distributed wavefunctions
     high-symmetry point:  0.0000 0.5000 0.0000   x coordinate   0.0000
     high-symmetry point:  0.5000 0.5000 0.0000   x coordinate   0.5000
     high-symmetry point:  0.0000 0.0000 0.0000   x coordinate   1.2071
     high-symmetry point:  0.0000 0.5000 0.0000   x coordinate   1.7071
     high-symmetry point:  0.5000 0.5000 0.5000   x coordinate   2.4142
     high-symmetry point:  0.0000 0.0000 0.0000   x coordinate   3.2802
     high-symmetry point:  0.5000 0.5000 0.0000   x coordinate   3.9873
     high-symmetry point:  0.5000 0.5000 0.5000   x coordinate   4.4873

     Plottable bands (eV) written to file bands.dat.gnu
     Bands written to file bands.dat

 **************************************************************************

                    xk=(   0.00000,   0.50000,   0.00000  )

     zone border point and non-symmorphic group 
     symmetry decomposition not available

 **************************************************************************

 **************************************************************************

                    xk=(   0.03333,   0.50000,   0.00000  )

     zone border point and non-symmorphic group 
     symmetry decomposition not available

 **************************************************************************

 **************************************************************************

                    xk=(   0.06667,   0.50000,   0.00000  )

     zone border point and non-symmorphic group 
     symmetry decomposition not available

 **************************************************************************

 **************************************************************************

                    xk=(   0.10000,   0.50000,   0.00000  )

     zone border point and non-symmorphic group 
     symmetry decomposition not available

 **************************************************************************

 **************************************************************************

                    xk=(   0.13333,   0.50000,   0.00000  )

     zone border point and non-symmorphic group 
     symmetry decomposition not available

 **************************************************************************

 **************************************************************************

                    xk=(   0.16667,   0.50000,   0.00000  )

     zone border point and non-symmorphic group 
     symmetry decomposition not available

 **************************************************************************

 **************************************************************************

                    xk=(   0.20000,   0.50000,   0.00000  )

     zone border point and non-symmorphic group 
     symmetry decomposition not available

 **************************************************************************

 **************************************************************************

                    xk=(   0.23333,   0.50000,   0.00000  )

     zone border point and non-symmorphic group 
     symmetry decomposition not available

 **************************************************************************

 **************************************************************************

                    xk=(   0.26667,   0.50000,   0.00000  )

     zone border point and non-symmorphic group 
     symmetry decomposition not available

 **************************************************************************

 **************************************************************************

                    xk=(   0.30000,   0.50000,   0.00000  )

     zone border point and non-symmorphic group 
     symmetry decomposition not available

 **************************************************************************

 **************************************************************************

                    xk=(   0.33333,   0.50000,   0.00000  )

     zone border point and non-symmorphic group 
     symmetry decomposition not available

 **************************************************************************

 **************************************************************************

                    xk=(   0.36667,   0.50000,   0.00000  )

     zone border point and non-symmorphic group 
     symmetry decomposition not available

 **************************************************************************

 **************************************************************************

                    xk=(   0.40000,   0.50000,   0.00000  )

     zone border point and non-symmorphic group 
     symmetry decomposition not available

 **************************************************************************

 **************************************************************************

                    xk=(   0.43333,   0.50000,   0.00000  )

     zone border point and non-symmorphic group 
     symmetry decomposition not available

 **************************************************************************

 **************************************************************************

                    xk=(   0.46667,   0.50000,   0.00000  )

     zone border point and non-symmorphic group 
     symmetry decomposition not available

 **************************************************************************

 **************************************************************************

                    xk=(   0.50000,   0.50000,   0.00000  )

     zone border point and non-symmorphic group 
     symmetry decomposition not available

 **************************************************************************

 **************************************************************************

                    xk=(   0.46667,   0.46667,   0.00000  )

     point group C_2v (mm2) 
     there are  4 classes
     the character table:

       E     C2    s_v   s_v' 
A_1    1.00  1.00  1.00  1.00
A_2    1.00  1.00 -1.00 -1.00
B_1    1.00 -1.00  1.00 -1.00
B_2    1.00 -1.00 -1.00  1.00

     the symmetry operations in each class and the name of the first element:

     E        1
                                                                 
     C2       2
                                                                 
     s_v      3
                                                                 
     s_v'     4
                                                                 

     Band symmetry, C_2v (mm2)  point group:

     e(  1 -  4) =   -100.16519  eV     4   -->   2 A_1  D_1  S_1  
     e(  1 -  4) =   -100.16519  eV     4   --> A_2  D_2  S_2  
     e(  1 -  4) =   -100.16519  eV     4   --> B_2  D_4  S_4  
     e(  5 -  5) =    -57.68130  eV     1   --> B_2  D_4  S_4  
     e(  6 -  6) =    -57.68114  eV     1   --> A_1  D_1  S_1  
     e(  7 -  8) =    -57.67312  eV     2   --> B_1  D_3  S_3  
     e(  7 -  8) =    -57.67312  eV     2   --> B_2  D_4  S_4  
     e(  9 - 10) =    -57.56460  eV     2   --> A_1  D_1  S_1  
     e(  9 - 10) =    -57.56460  eV     2   --> A_2  D_2  S_2  
     e( 11 - 11) =    -57.56213  eV     1   --> B_2  D_4  S_4  
     e( 12 - 12) =    -57.56194  eV     1   --> A_1  D_1  S_1  
     e( 13 - 13) =    -57.55912  eV     1   --> B_1  D_3  S_3  
     e( 14 - 14) =    -57.55902  eV     1   --> B_2  D_4  S_4  
     e( 15 - 16) =    -57.55640  eV     2   --> A_2  D_2  S_2  
     e( 15 - 16) =    -57.55640  eV     2   --> B_1  D_3  S_3  
     e( 17 - 17) =     -8.61373  eV     1   --> A_1  D_1  S_1  
     e( 18 - 18) =     -8.60381  eV     1   --> B_2  D_4  S_4  
     e( 19 - 19) =      3.52309  eV     1   --> A_2  D_2  S_2  
     e( 20 - 20) =      3.54220  eV     1   --> A_1  D_1  S_1  
     e( 21 - 21) =      4.44714  eV     1   --> A_1  D_1  S_1  
     e( 22 - 22) =      4.47148  eV     1   --> B_2  D_4  S_4  
     e( 23 - 23) =      4.98803  eV     1   --> B_2  D_4  S_4  
     e( 24 - 24) =      5.01545  eV     1   --> B_1  D_3  S_3  
     e( 25 - 25) =      6.77308  eV     1   --> A_1  D_1  S_1  
     e( 26 - 26) =      6.78816  eV     1   --> B_2  D_4  S_4  
     e( 27 - 27) =      6.81840  eV     1   --> A_1  D_1  S_1  
     e( 28 - 28) =      6.83210  eV     1   --> A_2  D_2  S_2  
     e( 29 - 29) =      7.06897  eV     1   --> B_1  D_3  S_3  
     e( 30 - 30) =      7.07230  eV     1   --> B_2  D_4  S_4  
     e( 31 - 31) =      7.09384  eV     1   --> A_2  D_2  S_2  
     e( 32 - 32) =      7.12409  eV     1   --> A_1  D_1  S_1  
     e( 33 - 33) =      7.18331  eV     1   --> B_1  D_3  S_3  
     e( 34 - 34) =      7.20728  eV     1   --> A_2  D_2  S_2  
     e( 35 - 35) =      7.45606  eV     1   --> A_2  D_2  S_2  
     e( 36 - 36) =      7.45801  eV     1   --> B_1  D_3  S_3  
     e( 37 - 37) =      7.62846  eV     1   --> A_1  D_1  S_1  
     e( 38 - 38) =      7.63330  eV     1   --> B_2  D_4  S_4  
     e( 39 - 39) =      8.38424  eV     1   --> A_1  D_1  S_1  
     e( 40 - 40) =      8.41112  eV     1   --> A_2  D_2  S_2  
     e( 41 - 41) =      8.83296  eV     1   --> B_1  D_3  S_3  
     e( 42 - 42) =      8.84455  eV     1   --> B_2  D_4  S_4  
     e( 43 - 43) =      9.74019  eV     1   --> B_2  D_4  S_4  
     e( 44 - 44) =      9.75659  eV     1   --> A_1  D_1  S_1  
     e( 45 - 45) =     13.13831  eV     1   --> A_1  D_1  S_1  
     e( 46 - 46) =     13.16240  eV     1   --> B_2  D_4  S_4  
     e( 47 - 47) =     15.02443  eV     1   --> A_2  D_2  S_2  
     e( 48 - 48) =     15.05051  eV     1   --> A_1  D_1  S_1  
     e( 49 - 49) =     18.22791  eV     1   --> A_1  D_1  S_1  
     e( 50 - 50) =     18.22911  eV     1   --> A_2  D_2  S_2  
     e( 51 - 51) =     19.60374  eV     1   --> B_2  D_4  S_4  
     e( 52 - 52) =     19.74771  eV     1   --> B_1  D_3  S_3  
     e( 53 - 53) =     22.33744  eV     1   --> A_1  D_1  S_1  
     e( 54 - 54) =     22.46231  eV     1   --> B_2  D_4  S_4  
     e( 55 - 55) =     23.75688  eV     1   --> B_2  D_4  S_4  
     e( 56 - 56) =     23.78369  eV     1   --> A_1  D_1  S_1  
     e( 57 - 57) =     24.87619  eV     1   --> A_2  D_2  S_2  
     e( 58 - 58) =     25.09538  eV     1   --> B_1  D_3  S_3  
     e( 59 - 59) =     28.11067  eV     1   --> A_1  D_1  S_1  
     e( 60 - 60) =     28.56478  eV     1   --> A_2  D_2  S_2  

 **************************************************************************

 **************************************************************************

                    xk=(   0.43333,   0.43333,   0.00000  )

     Band symmetry, C_2v (mm2)  point group:

     e(  1 -  1) =   -100.16521  eV     1   --> A_1  D_1  S_1  
     e(  2 -  3) =   -100.16509  eV     2   --> A_2  D_2  S_2  
     e(  2 -  3) =   -100.16509  eV     2   --> B_2  D_4  S_4  
     e(  4 -  4) =   -100.16489  eV     1   --> A_1  D_1  S_1  
     e(  5 -  5) =    -57.68153  eV     1   --> B_2  D_4  S_4  
     e(  6 -  6) =    -57.68089  eV     1   --> A_1  D_1  S_1  
     e(  7 -  8) =    -57.67313  eV     2   --> B_1  D_3  S_3  
     e(  7 -  8) =    -57.67313  eV     2   --> B_2  D_4  S_4  
     e(  9 -  9) =    -57.56464  eV     1   --> A_2  D_2  S_2  
     e( 10 - 10) =    -57.56434  eV     1   --> A_1  D_1  S_1  
     e( 11 - 11) =    -57.56249  eV     1   --> B_2  D_4  S_4  
     e( 12 - 12) =    -57.56179  eV     1   --> A_1  D_1  S_1  
     e( 13 - 13) =    -57.55914  eV     1   --> B_1  D_3  S_3  
     e( 14 - 14) =    -57.55875  eV     1   --> B_2  D_4  S_4  
     e( 15 - 15) =    -57.55658  eV     1   --> A_2  D_2  S_2  
     e( 16 - 16) =    -57.55631  eV     1   --> B_1  D_3  S_3  
     e( 17 - 17) =     -8.62932  eV     1   --> A_1  D_1  S_1  
     e( 18 - 18) =     -8.59006  eV     1   --> B_2  D_4  S_4  
     e( 19 - 19) =      3.51504  eV     1   --> A_2  D_2  S_2  
     e( 20 - 20) =      3.59025  eV     1   --> A_1  D_1  S_1  
     e( 21 - 21) =      4.40765  eV     1   --> A_1  D_1  S_1  
     e( 22 - 22) =      4.50185  eV     1   --> B_2  D_4  S_4  
     e( 23 - 23) =      4.93050  eV     1   --> B_2  D_4  S_4  
     e( 24 - 24) =      5.03830  eV     1   --> B_1  D_3  S_3  
     e( 25 - 25) =      6.74615  eV     1   --> A_1  D_1  S_1  
     e( 26 - 26) =      6.80078  eV     1   --> B_2  D_4  S_4  
     e( 27 - 27) =      6.80285  eV     1   --> A_1  D_1  S_1  
     e( 28 - 28) =      6.86191  eV     1   --> A_2  D_2  S_2  
     e( 29 - 29) =      7.04623  eV     1   --> A_2  D_2  S_2  
     e( 30 - 30) =      7.04983  eV     1   --> B_1  D_3  S_3  
     e( 31 - 31) =      7.06514  eV     1   --> B_2  D_4  S_4  
     e( 32 - 32) =      7.12790  eV     1   --> A_1  D_1  S_1  
     e( 33 - 33) =      7.19268  eV     1   --> B_1  D_3  S_3  
     e( 34 - 34) =      7.25060  eV     1   --> A_2  D_2  S_2  
     e( 35 - 35) =      7.46687  eV     1   --> A_2  D_2  S_2  
     e( 36 - 36) =      7.47431  eV     1   --> B_1  D_3  S_3  
     e( 37 - 37) =      7.62095  eV     1   --> A_1  D_1  S_1  
     e( 38 - 38) =      7.64096  eV     1   --> B_2  D_4  S_4  
     e( 39 - 39) =      8.33622  eV     1   --> A_1  D_1  S_1  
     e( 40 - 40) =      8.43752  eV     1   --> A_2  D_2  S_2  
     e( 41 - 41) =      8.80170  eV     1   --> B_1  D_3  S_3  
     e( 42 - 42) =      8.84569  eV     1   --> B_2  D_4  S_4  
     e( 43 - 43) =      9.73075  eV     1   --> B_2  D_4  S_4  
     e( 44 - 44) =      9.79204  eV     1   --> A_1  D_1  S_1  
     e( 45 - 45) =     13.13845  eV     1   --> A_1  D_1  S_1  
     e( 46 - 46) =     13.24045  eV     1   --> B_2  D_4  S_4  
     e( 47 - 47) =     14.99405  eV     1   --> A_2  D_2  S_2  
     e( 48 - 48) =     15.10724  eV     1   --> A_1  D_1  S_1  
     e( 49 - 49) =     18.26782  eV     1   --> A_1  D_1  S_1  
     e( 50 - 50) =     18.27319  eV     1   --> A_2  D_2  S_2  
     e( 51 - 51) =     19.26820  eV     1   --> B_2  D_4  S_4  
     e( 52 - 52) =     19.76439  eV     1   --> B_1  D_3  S_3  
     e( 53 - 53) =     22.44740  eV     1   --> A_1  D_1  S_1  
     e( 54 - 54) =     22.87074  eV     1   --> B_2  D_4  S_4  
     e( 55 - 55) =     23.75588  eV     1   --> B_2  D_4  S_4  
     e( 56 - 56) =     23.86298  eV     1   --> A_1  D_1  S_1  
     e( 57 - 57) =     24.36915  eV     1   --> A_2  D_2  S_2  
     e( 58 - 58) =     25.12042  eV     1   --> B_1  D_3  S_3  
     e( 59 - 59) =     27.69327  eV     1   --> A_1  D_1  S_1  
     e( 60 - 60) =     28.21939  eV     1   --> B_2  D_4  S_4  

 **************************************************************************

 **************************************************************************

                    xk=(   0.40000,   0.40000,   0.00000  )

     Band symmetry, C_2v (mm2)  point group:

     e(  1 -  1) =   -100.16520  eV     1   --> A_1  D_1  S_1  
     e(  2 -  3) =   -100.16505  eV     2   --> A_2  D_2  S_2  
     e(  2 -  3) =   -100.16505  eV     2   --> B_2  D_4  S_4  
     e(  4 -  4) =   -100.16473  eV     1   --> A_1  D_1  S_1  
     e(  5 -  5) =    -57.68190  eV     1   --> B_2  D_4  S_4  
     e(  6 -  6) =    -57.68047  eV     1   --> A_1  D_1  S_1  
     e(  7 -  8) =    -57.67315  eV     2   --> B_1  D_3  S_3  
     e(  7 -  8) =    -57.67315  eV     2   --> B_2  D_4  S_4  
     e(  9 -  9) =    -57.56472  eV     1   --> A_2  D_2  S_2  
     e( 10 - 10) =    -57.56404  eV     1   --> A_1  D_1  S_1  
     e( 11 - 11) =    -57.56299  eV     1   --> B_2  D_4  S_4  
     e( 12 - 12) =    -57.56155  eV     1   --> A_1  D_1  S_1  
     e( 13 - 13) =    -57.55917  eV     1   --> B_1  D_3  S_3  
     e( 14 - 14) =    -57.55841  eV     1   --> B_2  D_4  S_4  
     e( 15 - 15) =    -57.55687  eV     1   --> A_2  D_2  S_2  
     e( 16 - 16) =    -57.55629  eV     1   --> B_1  D_3  S_3  
     e( 17 - 17) =     -8.65441  eV     1   --> A_1  D_1  S_1  
     e( 18 - 18) =     -8.56769  eV     1   --> B_2  D_4  S_4  
     e( 19 - 19) =      3.50199  eV     1   --> A_2  D_2  S_2  
     e( 20 - 20) =      3.66571  eV     1   --> A_1  D_1  S_1  
     e( 21 - 21) =      4.34990  eV     1   --> A_1  D_1  S_1  
     e( 22 - 22) =      4.54724  eV     1   --> B_2  D_4  S_4  
     e( 23 - 23) =      4.84307  eV     1   --> B_2  D_4  S_4  
     e( 24 - 24) =      5.07614  eV     1   --> B_1  D_3  S_3  
     e( 25 - 25) =      6.70871  eV     1   --> A_1  D_1  S_1  
     e( 26 - 26) =      6.76926  eV     1   --> A_1  D_1  S_1  
     e( 27 - 27) =      6.81784  eV     1   --> B_2  D_4  S_4  
     e( 28 - 28) =      6.90877  eV     1   --> A_2  D_2  S_2  
     e( 29 - 29) =      6.99714  eV     1   --> A_2  D_2  S_2  
     e( 30 - 30) =      7.02195  eV     1   --> B_1  D_3  S_3  
     e( 31 - 31) =      7.06393  eV     1   --> B_2  D_4  S_4  
     e( 32 - 32) =      7.13445  eV     1   --> A_1  D_1  S_1  
     e( 33 - 33) =      7.20659  eV     1   --> B_1  D_3  S_3  
     e( 34 - 34) =      7.29565  eV     1   --> A_2  D_2  S_2  
     e( 35 - 35) =      7.48296  eV     1   --> A_2  D_2  S_2  
     e( 36 - 36) =      7.49877  eV     1   --> B_1  D_3  S_3  
     e( 37 - 37) =      7.60270  eV     1   --> A_1  D_1  S_1  
     e( 38 - 38) =      7.65010  eV     1   --> B_2  D_4  S_4  
     e( 39 - 39) =      8.27362  eV     1   --> A_1  D_1  S_1  
     e( 40 - 40) =      8.48228  eV     1   --> A_2  D_2  S_2  
     e( 41 - 41) =      8.75046  eV     1   --> B_1  D_3  S_3  
     e( 42 - 42) =      8.84090  eV     1   --> B_2  D_4  S_4  
     e( 43 - 43) =      9.71954  eV     1   --> B_2  D_4  S_4  
     e( 44 - 44) =      9.84357  eV     1   --> A_1  D_1  S_1  
     e( 45 - 45) =     13.11418  eV     1   --> A_1  D_1  S_1  
     e( 46 - 46) =     13.35976  eV     1   --> B_2  D_4  S_4  
     e( 47 - 47) =     14.94151  eV     1   --> A_2  D_2  S_2  
     e( 48 - 48) =     15.22495  eV     1   --> A_1  D_1  S_1  
     e( 49 - 49) =     18.33235  eV     1   --> A_1  D_1  S_1  
     e( 50 - 50) =     18.34657  eV     1   --> A_2  D_2  S_2  
     e( 51 - 51) =     18.85691  eV     1   --> B_2  D_4  S_4  
     e( 52 - 52) =     19.79267  eV     1   --> B_1  D_3  S_3  
     e( 53 - 53) =     22.62181  eV     1   --> A_1  D_1  S_1  
     e( 54 - 54) =     23.40664  eV     1   --> B_2  D_4  S_4  
     e( 55 - 55) =     23.74090  eV     1   --> A_2  D_2  S_2  
     e( 56 - 56) =     23.75524  eV     1   --> B_2  D_4  S_4  
     e( 57 - 57) =     23.99551  eV     1   --> A_1  D_1  S_1  
     e( 58 - 58) =     25.15739  eV     1   --> B_1  D_3  S_3  
     e( 59 - 59) =     27.27792  eV     1   --> A_1  D_1  S_1  
     e( 60 - 60) =     27.60176  eV     1   --> B_2  D_4  S_4  

 **************************************************************************

 **************************************************************************

                    xk=(   0.36667,   0.36667,   0.00000  )

     Band symmetry, C_2v (mm2)  point group:

     e(  1 -  1) =   -100.16518  eV     1   --> A_1  D_1  S_1  
     e(  2 -  3) =   -100.16500  eV     2   --> A_2  D_2  S_2  
     e(  2 -  3) =   -100.16500  eV     2   --> B_2  D_4  S_4  
     e(  4 -  4) =   -100.16458  eV     1   --> A_1  D_1  S_1  
     e(  5 -  5) =    -57.68240  eV     1   --> B_2  D_4  S_4  
     e(  6 -  6) =    -57.67992  eV     1   --> A_1  D_1  S_1  
     e(  7 -  8) =    -57.67317  eV     2   --> B_1  D_3  S_3  
     e(  7 -  8) =    -57.67317  eV     2   --> B_2  D_4  S_4  
     e(  9 -  9) =    -57.56484  eV     1   --> A_2  D_2  S_2  
     e( 10 - 11) =    -57.56365  eV     2   --> A_1  D_1  S_1  
     e( 10 - 11) =    -57.56365  eV     2   --> B_2  D_4  S_4  
     e( 12 - 12) =    -57.56121  eV     1   --> A_1  D_1  S_1  
     e( 13 - 13) =    -57.55921  eV     1   --> B_1  D_3  S_3  
     e( 14 - 14) =    -57.55806  eV     1   --> B_2  D_4  S_4  
     e( 15 - 15) =    -57.55723  eV     1   --> A_2  D_2  S_2  
     e( 16 - 16) =    -57.55625  eV     1   --> B_1  D_3  S_3  
     e( 17 - 17) =     -8.68770  eV     1   --> A_1  D_1  S_1  
     e( 18 - 18) =     -8.53747  eV     1   --> B_2  D_4  S_4  
     e( 19 - 19) =      3.48446  eV     1   --> A_2  D_2  S_2  
     e( 20 - 20) =      3.75704  eV     1   --> A_1  D_1  S_1  
     e( 21 - 21) =      4.28951  eV     1   --> A_1  D_1  S_1  
     e( 22 - 22) =      4.57699  eV     1   --> B_2  D_4  S_4  
     e( 23 - 23) =      4.76132  eV     1   --> B_2  D_4  S_4  
     e( 24 - 24) =      5.12861  eV     1   --> B_1  D_3  S_3  
     e( 25 - 25) =      6.66440  eV     1   --> A_1  D_1  S_1  
     e( 26 - 26) =      6.71526  eV     1   --> A_1  D_1  S_1  
     e( 27 - 27) =      6.83421  eV     1   --> B_2  D_4  S_4  
     e( 28 - 28) =      6.93039  eV     1   --> A_2  D_2  S_2  
     e( 29 - 29) =      6.98821  eV     1   --> B_1  D_3  S_3  
     e( 30 - 30) =      6.98945  eV     1   --> A_2  D_2  S_2  
     e( 31 - 31) =      7.07914  eV     1   --> B_2  D_4  S_4  
     e( 32 - 32) =      7.14264  eV     1   --> A_1  D_1  S_1  
     e( 33 - 33) =      7.22413  eV     1   --> B_1  D_3  S_3  
     e( 34 - 34) =      7.34139  eV     1   --> A_2  D_2  S_2  
     e( 35 - 35) =      7.50231  eV     1   --> A_2  D_2  S_2  
     e( 36 - 36) =      7.52878  eV     1   --> B_1  D_3  S_3  
     e( 37 - 37) =      7.56946  eV     1   --> A_1  D_1  S_1  
     e( 38 - 38) =      7.65809  eV     1   --> B_2  D_4  S_4  
     e( 39 - 39) =      8.21194  eV     1   --> A_1  D_1  S_1  
     e( 40 - 40) =      8.54663  eV     1   --> A_2  D_2  S_2  
     e( 41 - 41) =      8.68049  eV     1   --> B_1  D_3  S_3  
     e( 42 - 42) =      8.82174  eV     1   --> B_2  D_4  S_4  
     e( 43 - 43) =      9.71286  eV     1   --> B_2  D_4  S_4  
     e( 44 - 44) =      9.90493  eV     1   --> A_1  D_1  S_1  
     e( 45 - 45) =     13.04422  eV     1   --> A_1  D_1  S_1  
     e( 46 - 46) =     13.50359  eV     1   --> B_2  D_4  S_4  
     e( 47 - 47) =     14.86410  eV     1   --> A_2  D_2  S_2  
     e( 48 - 48) =     15.42397  eV     1   --> A_1  D_1  S_1  
     e( 49 - 49) =     18.41825  eV     1   --> A_1  D_1  S_1  
     e( 50 - 50) =     18.44555  eV     1   --> B_2  D_4  S_4  
     e( 51 - 51) =     18.44905  eV     1   --> A_2  D_2  S_2  
     e( 52 - 52) =     19.83309  eV     1   --> B_1  D_3  S_3  
     e( 53 - 53) =     22.84847  eV     1   --> A_1  D_1  S_1  
     e( 54 - 54) =     23.08573  eV     1   --> A_2  D_2  S_2  
     e( 55 - 55) =     23.75586  eV     1   --> B_2  D_4  S_4  
     e( 56 - 56) =     24.00022  eV     1   --> B_2  D_4  S_4  
     e( 57 - 57) =     24.18157  eV     1   --> A_1  D_1  S_1  
     e( 58 - 58) =     25.19901  eV     1   --> B_1  D_3  S_3  
     e( 59 - 59) =     26.89667  eV     1   --> A_1  D_1  S_1  
     e( 60 - 60) =     26.99289  eV     1   --> B_2  D_4  S_4  

 **************************************************************************

 **************************************************************************

                    xk=(   0.33333,   0.33333,   0.00000  )

     Band symmetry, C_2v (mm2)  point group:

     e(  1 -  1) =   -100.16515  eV     1   --> A_1  D_1  S_1  
     e(  2 -  3) =   -100.16495  eV     2   --> A_2  D_2  S_2  
     e(  2 -  3) =   -100.16495  eV     2   --> B_2  D_4  S_4  
     e(  4 -  4) =   -100.16445  eV     1   --> A_1  D_1  S_1  
     e(  5 -  5) =    -57.68301  eV     1   --> B_2  D_4  S_4  
     e(  6 -  6) =    -57.67925  eV     1   --> A_1  D_1  S_1  
     e(  7 -  8) =    -57.67319  eV     2   --> B_1  D_3  S_3  
     e(  7 -  8) =    -57.67319  eV     2   --> B_2  D_4  S_4  
     e(  9 -  9) =    -57.56500  eV     1   --> A_2  D_2  S_2  
     e( 10 - 10) =    -57.56416  eV     1   --> B_2  D_4  S_4  
     e( 11 - 11) =    -57.56318  eV     1   --> A_1  D_1  S_1  
     e( 12 - 12) =    -57.56078  eV     1   --> A_1  D_1  S_1  
     e( 13 - 13) =    -57.55925  eV     1   --> B_1  D_3  S_3  
     e( 14 - 15) =    -57.55771  eV     2   --> A_2  D_2  S_2  
     e( 14 - 15) =    -57.55771  eV     2   --> B_2  D_4  S_4  
     e( 16 - 16) =    -57.55622  eV     1   --> B_1  D_3  S_3  
     e( 17 - 17) =     -8.72754  eV     1   --> A_1  D_1  S_1  
     e( 18 - 18) =     -8.50051  eV     1   --> B_2  D_4  S_4  
     e( 19 - 19) =      3.46321  eV     1   --> A_2  D_2  S_2  
     e( 20 - 20) =      3.83200  eV     1   --> A_1  D_1  S_1  
     e( 21 - 21) =      4.26279  eV     1   --> A_1  D_1  S_1  
     e( 22 - 22) =      4.49407  eV     1   --> B_2  D_4  S_4  
     e( 23 - 23) =      4.78887  eV     1   --> B_2  D_4  S_4  
     e( 24 - 24) =      5.19518  eV     1   --> B_1  D_3  S_3  
     e( 25 - 25) =      6.61425  eV     1   --> A_1  D_1  S_1  
     e( 26 - 26) =      6.64333  eV     1   --> A_1  D_1  S_1  
     e( 27 - 27) =      6.84648  eV     1   --> B_2  D_4  S_4  
     e( 28 - 28) =      6.88384  eV     1   --> A_2  D_2  S_2  
     e( 29 - 29) =      6.95061  eV     1   --> B_1  D_3  S_3  
     e( 30 - 30) =      7.06437  eV     1   --> A_2  D_2  S_2  
     e( 31 - 31) =      7.11670  eV     1   --> B_2  D_4  S_4  
     e( 32 - 32) =      7.14962  eV     1   --> A_1  D_1  S_1  
     e( 33 - 33) =      7.24456  eV     1   --> B_1  D_3  S_3  
     e( 34 - 34) =      7.38770  eV     1   --> A_2  D_2  S_2  
     e( 35 - 35) =      7.52250  eV     1   --> A_1  D_1  S_1  
     e( 36 - 36) =      7.52312  eV     1   --> A_2  D_2  S_2  
     e( 37 - 37) =      7.56213  eV     1   --> B_1  D_3  S_3  
     e( 38 - 38) =      7.66375  eV     1   --> B_2  D_4  S_4  
     e( 39 - 39) =      8.15921  eV     1   --> A_1  D_1  S_1  
     e( 40 - 40) =      8.59362  eV     1   --> B_1  D_3  S_3  
     e( 41 - 41) =      8.63232  eV     1   --> A_2  D_2  S_2  
     e( 42 - 42) =      8.77963  eV     1   --> B_2  D_4  S_4  
     e( 43 - 43) =      9.71791  eV     1   --> B_2  D_4  S_4  
     e( 44 - 44) =      9.97177  eV     1   --> A_1  D_1  S_1  
     e( 45 - 45) =     12.92040  eV     1   --> A_1  D_1  S_1  
     e( 46 - 46) =     13.64731  eV     1   --> B_2  D_4  S_4  
     e( 47 - 47) =     14.75831  eV     1   --> A_2  D_2  S_2  
     e( 48 - 48) =     15.71257  eV     1   --> A_1  D_1  S_1  
     e( 49 - 49) =     18.08165  eV     1   --> B_2  D_4  S_4  
     e( 50 - 50) =     18.52089  eV     1   --> A_1  D_1  S_1  
     e( 51 - 51) =     18.58018  eV     1   --> A_2  D_2  S_2  
     e( 52 - 52) =     19.88615  eV     1   --> B_1  D_3  S_3  
     e( 53 - 53) =     22.44822  eV     1   --> A_2  D_2  S_2  
     e( 54 - 54) =     23.11162  eV     1   --> A_1  D_1  S_1  
     e( 55 - 55) =     23.75977  eV     1   --> B_2  D_4  S_4  
     e( 56 - 56) =     24.42101  eV     1   --> A_1  D_1  S_1  
     e( 57 - 57) =     24.61148  eV     1   --> B_2  D_4  S_4  
     e( 58 - 58) =     25.23493  eV     1   --> B_1  D_3  S_3  
     e( 59 - 59) =     26.40306  eV     1   --> B_2  D_4  S_4  
     e( 60 - 60) =     26.56120  eV     1   --> A_1  D_1  S_1  

 **************************************************************************

 **************************************************************************

                    xk=(   0.30000,   0.30000,   0.00000  )

     Band symmetry, C_2v (mm2)  point group:

     e(  1 -  1) =   -100.16513  eV     1   --> A_1  D_1  S_1  
     e(  2 -  3) =   -100.16489  eV     2   --> A_2  D_2  S_2  
     e(  2 -  3) =   -100.16489  eV     2   --> B_2  D_4  S_4  
     e(  4 -  4) =   -100.16437  eV     1   --> A_1  D_1  S_1  
     e(  5 -  5) =    -57.68370  eV     1   --> B_2  D_4  S_4  
     e(  6 -  6) =    -57.67849  eV     1   --> A_1  D_1  S_1  
     e(  7 -  8) =    -57.67321  eV     2   --> B_1  D_3  S_3  
     e(  7 -  8) =    -57.67321  eV     2   --> B_2  D_4  S_4  
     e(  9 -  9) =    -57.56523  eV     1   --> A_2  D_2  S_2  
     e( 10 - 10) =    -57.56476  eV     1   --> B_2  D_4  S_4  
     e( 11 - 11) =    -57.56266  eV     1   --> A_1  D_1  S_1  
     e( 12 - 12) =    -57.56027  eV     1   --> A_1  D_1  S_1  
     e( 13 - 13) =    -57.55930  eV     1   --> B_1  D_3  S_3  
     e( 14 - 14) =    -57.55805  eV     1   --> A_2  D_2  S_2  
     e( 15 - 15) =    -57.55738  eV     1   --> B_2  D_4  S_4  
     e( 16 - 16) =    -57.55617  eV     1   --> B_1  D_3  S_3  
     e( 17 - 17) =     -8.77202  eV     1   --> A_1  D_1  S_1  
     e( 18 - 18) =     -8.45820  eV     1   --> B_2  D_4  S_4  
     e( 19 - 19) =      3.43917  eV     1   --> A_2  D_2  S_2  
     e( 20 - 20) =      3.83637  eV     1   --> A_1  D_1  S_1  
     e( 21 - 21) =      4.32724  eV     1   --> A_1  D_1  S_1  
     e( 22 - 22) =      4.33896  eV     1   --> B_2  D_4  S_4  
     e( 23 - 23) =      4.89267  eV     1   --> B_2  D_4  S_4  
     e( 24 - 24) =      5.27515  eV     1   --> B_1  D_3  S_3  
     e( 25 - 25) =      6.54181  eV     1   --> A_1  D_1  S_1  
     e( 26 - 26) =      6.57574  eV     1   --> A_1  D_1  S_1  
     e( 27 - 27) =      6.83369  eV     1   --> A_2  D_2  S_2  
     e( 28 - 28) =      6.85523  eV     1   --> B_2  D_4  S_4  
     e( 29 - 29) =      6.91045  eV     1   --> B_1  D_3  S_3  
     e( 30 - 30) =      7.15074  eV     1   --> A_1  D_1  S_1  
     e( 31 - 31) =      7.15390  eV     1   --> A_2  D_2  S_2  
     e( 32 - 32) =      7.17526  eV     1   --> B_2  D_4  S_4  
     e( 33 - 33) =      7.26704  eV     1   --> B_1  D_3  S_3  
     e( 34 - 34) =      7.43443  eV     1   --> A_2  D_2  S_2  
     e( 35 - 35) =      7.47008  eV     1   --> A_1  D_1  S_1  
     e( 36 - 36) =      7.54423  eV     1   --> A_2  D_2  S_2  
     e( 37 - 37) =      7.59707  eV     1   --> B_1  D_3  S_3  
     e( 38 - 38) =      7.66713  eV     1   --> B_2  D_4  S_4  
     e( 39 - 39) =      8.11418  eV     1   --> A_1  D_1  S_1  
     e( 40 - 40) =      8.49220  eV     1   --> B_1  D_3  S_3  
     e( 41 - 41) =      8.70885  eV     1   --> B_2  D_4  S_4  
     e( 42 - 42) =      8.74164  eV     1   --> A_2  D_2  S_2  
     e( 43 - 43) =      9.74034  eV     1   --> B_2  D_4  S_4  
     e( 44 - 44) =     10.04118  eV     1   --> A_1  D_1  S_1  
     e( 45 - 45) =     12.74906  eV     1   --> A_1  D_1  S_1  
     e( 46 - 46) =     13.75860  eV     1   --> B_2  D_4  S_4  
     e( 47 - 47) =     14.62029  eV     1   --> A_2  D_2  S_2  
     e( 48 - 48) =     16.08594  eV     1   --> A_1  D_1  S_1  
     e( 49 - 49) =     17.80451  eV     1   --> B_2  D_4  S_4  
     e( 50 - 50) =     18.63466  eV     1   --> A_1  D_1  S_1  
     e( 51 - 51) =     18.73909  eV     1   --> A_2  D_2  S_2  
     e( 52 - 52) =     19.95205  eV     1   --> B_1  D_3  S_3  
     e( 53 - 53) =     21.85249  eV     1   --> A_2  D_2  S_2  
     e( 54 - 54) =     23.39188  eV     1   --> A_1  D_1  S_1  
     e( 55 - 55) =     23.76751  eV     1   --> B_2  D_4  S_4  
     e( 56 - 56) =     24.71273  eV     1   --> A_1  D_1  S_1  
     e( 57 - 57) =     25.19919  eV     1   --> B_2  D_4  S_4  
     e( 58 - 58) =     25.25169  eV     1   --> B_1  D_3  S_3  
     e( 59 - 59) =     25.85260  eV     1   --> B_2  D_4  S_4  
     e( 60 - 60) =     26.28003  eV     1   --> A_1  D_1  S_1  

 **************************************************************************

 **************************************************************************

                    xk=(   0.26667,   0.26667,   0.00000  )

     Band symmetry, C_2v (mm2)  point group:

     e(  1 -  1) =   -100.16513  eV     1   --> A_1  D_1  S_1  
     e(  2 -  3) =   -100.16485  eV     2   --> A_2  D_2  S_2  
     e(  2 -  3) =   -100.16485  eV     2   --> B_2  D_4  S_4  
     e(  4 -  4) =   -100.16433  eV     1   --> A_1  D_1  S_1  
     e(  5 -  5) =    -57.68443  eV     1   --> B_2  D_4  S_4  
     e(  6 -  6) =    -57.67767  eV     1   --> A_1  D_1  S_1  
     e(  7 -  8) =    -57.67322  eV     2   --> B_1  D_3  S_3  
     e(  7 -  8) =    -57.67322  eV     2   --> B_2  D_4  S_4  
     e(  9 -  9) =    -57.56552  eV     1   --> A_2  D_2  S_2  
     e( 10 - 10) =    -57.56533  eV     1   --> B_2  D_4  S_4  
     e( 11 - 11) =    -57.56213  eV     1   --> A_1  D_1  S_1  
     e( 12 - 12) =    -57.55968  eV     1   --> A_1  D_1  S_1  
     e( 13 - 13) =    -57.55935  eV     1   --> B_1  D_3  S_3  
     e( 14 - 14) =    -57.55844  eV     1   --> A_2  D_2  S_2  
     e( 15 - 15) =    -57.55708  eV     1   --> B_2  D_4  S_4  
     e( 16 - 16) =    -57.55613  eV     1   --> B_1  D_3  S_3  
     e( 17 - 17) =     -8.81906  eV     1   --> A_1  D_1  S_1  
     e( 18 - 18) =     -8.41219  eV     1   --> B_2  D_4  S_4  
     e( 19 - 19) =      3.41344  eV     1   --> A_2  D_2  S_2  
     e( 20 - 20) =      3.77282  eV     1   --> A_1  D_1  S_1  
     e( 21 - 21) =      4.16571  eV     1   --> B_2  D_4  S_4  
     e( 22 - 22) =      4.48219  eV     1   --> A_1  D_1  S_1  
     e( 23 - 23) =      5.02607  eV     1   --> B_2  D_4  S_4  
     e( 24 - 24) =      5.36758  eV     1   --> B_1  D_3  S_3  
     e( 25 - 25) =      6.44226  eV     1   --> A_1  D_1  S_1  
     e( 26 - 26) =      6.52496  eV     1   --> A_1  D_1  S_1  
     e( 27 - 27) =      6.78542  eV     1   --> A_2  D_2  S_2  
     e( 28 - 28) =      6.86234  eV     1   --> B_2  D_4  S_4  
     e( 29 - 29) =      6.86851  eV     1   --> B_1  D_3  S_3  
     e( 30 - 30) =      7.14004  eV     1   --> A_1  D_1  S_1  
     e( 31 - 31) =      7.24743  eV     1   --> A_2  D_2  S_2  
     e( 32 - 32) =      7.24937  eV     1   --> B_2  D_4  S_4  
     e( 33 - 33) =      7.29050  eV     1   --> B_1  D_3  S_3  
     e( 34 - 34) =      7.42369  eV     1   --> A_1  D_1  S_1  
     e( 35 - 35) =      7.48145  eV     1   --> A_2  D_2  S_2  
     e( 36 - 36) =      7.56520  eV     1   --> A_2  D_2  S_2  
     e( 37 - 37) =      7.63213  eV     1   --> B_1  D_3  S_3  
     e( 38 - 38) =      7.66911  eV     1   --> B_2  D_4  S_4  
     e( 39 - 39) =      8.07049  eV     1   --> A_1  D_1  S_1  
     e( 40 - 40) =      8.37923  eV     1   --> B_1  D_3  S_3  
     e( 41 - 41) =      8.60831  eV     1   --> B_2  D_4  S_4  
     e( 42 - 42) =      8.87714  eV     1   --> A_2  D_2  S_2  
     e( 43 - 43) =      9.78264  eV     1   --> B_2  D_4  S_4  
     e( 44 - 44) =     10.11085  eV     1   --> A_1  D_1  S_1  
     e( 45 - 45) =     12.54418  eV     1   --> A_1  D_1  S_1  
     e( 46 - 46) =     13.80243  eV     1   --> B_2  D_4  S_4  
     e( 47 - 47) =     14.44662  eV     1   --> A_2  D_2  S_2  
     e( 48 - 48) =     16.53283  eV     1   --> A_1  D_1  S_1  
     e( 49 - 49) =     17.64935  eV     1   --> B_2  D_4  S_4  
     e( 50 - 50) =     18.75356  eV     1   --> A_1  D_1  S_1  
     e( 51 - 51) =     18.92407  eV     1   --> A_2  D_2  S_2  
     e( 52 - 52) =     20.03047  eV     1   --> B_1  D_3  S_3  
     e( 53 - 53) =     21.31390  eV     1   --> A_2  D_2  S_2  
     e( 54 - 54) =     23.66522  eV     1   --> A_1  D_1  S_1  
     e( 55 - 55) =     23.77851  eV     1   --> B_2  D_4  S_4  
     e( 56 - 56) =     25.05405  eV     1   --> A_1  D_1  S_1  
     e( 57 - 57) =     25.22183  eV     1   --> B_2  D_4  S_4  
     e( 58 - 58) =     25.23358  eV     1   --> B_1  D_3  S_3  
     e( 59 - 59) =     25.86417  eV     1   --> B_2  D_4  S_4  
     e( 60 - 60) =     26.06243  eV     1   --> A_1  D_1  S_1  

 **************************************************************************

 **************************************************************************

                    xk=(   0.23333,   0.23333,   0.00000  )

     Band symmetry, C_2v (mm2)  point group:

     e(  1 -  1) =   -100.16515  eV     1   --> A_1  D_1  S_1  
     e(  2 -  3) =   -100.16481  eV     2   --> A_2  D_2  S_2  
     e(  2 -  3) =   -100.16481  eV     2   --> B_2  D_4  S_4  
     e(  4 -  4) =   -100.16434  eV     1   --> A_1  D_1  S_1  
     e(  5 -  5) =    -57.68518  eV     1   --> B_2  D_4  S_4  
     e(  6 -  6) =    -57.67683  eV     1   --> A_1  D_1  S_1  
     e(  7 -  8) =    -57.67323  eV     2   --> B_1  D_3  S_3  
     e(  7 -  8) =    -57.67323  eV     2   --> B_2  D_4  S_4  
     e(  9 - 10) =    -57.56588  eV     2   --> A_2  D_2  S_2  
     e(  9 - 10) =    -57.56588  eV     2   --> B_2  D_4  S_4  
     e( 11 - 11) =    -57.56161  eV     1   --> A_1  D_1  S_1  
     e( 12 - 12) =    -57.55940  eV     1   --> B_1  D_3  S_3  
     e( 13 - 13) =    -57.55903  eV     1   --> A_1  D_1  S_1  
     e( 14 - 14) =    -57.55878  eV     1   --> A_2  D_2  S_2  
     e( 15 - 15) =    -57.55681  eV     1   --> B_2  D_4  S_4  
     e( 16 - 16) =    -57.55608  eV     1   --> B_1  D_3  S_3  
     e( 17 - 17) =     -8.86655  eV     1   --> A_1  D_1  S_1  
     e( 18 - 18) =     -8.36438  eV     1   --> B_2  D_4  S_4  
     e( 19 - 19) =      3.38716  eV     1   --> A_2  D_2  S_2  
     e( 20 - 20) =      3.68303  eV     1   --> A_1  D_1  S_1  
     e( 21 - 21) =      3.99017  eV     1   --> B_2  D_4  S_4  
     e( 22 - 22) =      4.68640  eV     1   --> A_1  D_1  S_1  
     e( 23 - 23) =      5.17991  eV     1   --> B_2  D_4  S_4  
     e( 24 - 24) =      5.47129  eV     1   --> B_1  D_3  S_3  
     e( 25 - 25) =      6.33680  eV     1   --> A_1  D_1  S_1  
     e( 26 - 26) =      6.47844  eV     1   --> A_1  D_1  S_1  
     e( 27 - 27) =      6.74044  eV     1   --> A_2  D_2  S_2  
     e( 28 - 28) =      6.82505  eV     1   --> B_1  D_3  S_3  
     e( 29 - 29) =      6.86815  eV     1   --> B_2  D_4  S_4  
     e( 30 - 30) =      7.11277  eV     1   --> A_1  D_1  S_1  
     e( 31 - 31) =      7.31370  eV     1   --> B_1  D_3  S_3  
     e( 32 - 32) =      7.33275  eV     1   --> B_2  D_4  S_4  
     e( 33 - 33) =      7.33685  eV     1   --> A_2  D_2  S_2  
     e( 34 - 34) =      7.39204  eV     1   --> A_1  D_1  S_1  
     e( 35 - 35) =      7.52844  eV     1   --> A_2  D_2  S_2  
     e( 36 - 36) =      7.58689  eV     1   --> A_2  D_2  S_2  
     e( 37 - 37) =      7.66596  eV     1   --> B_1  D_3  S_3  
     e( 38 - 38) =      7.67102  eV     1   --> B_2  D_4  S_4  
     e( 39 - 39) =      8.02148  eV     1   --> A_1  D_1  S_1  
     e( 40 - 40) =      8.25849  eV     1   --> B_1  D_3  S_3  
     e( 41 - 41) =      8.48115  eV     1   --> B_2  D_4  S_4  
     e( 42 - 42) =      9.04106  eV     1   --> A_2  D_2  S_2  
     e( 43 - 43) =      9.84451  eV     1   --> B_2  D_4  S_4  
     e( 44 - 44) =     10.17858  eV     1   --> A_1  D_1  S_1  
     e( 45 - 45) =     12.32139  eV     1   --> A_1  D_1  S_1  
     e( 46 - 46) =     13.75458  eV     1   --> B_2  D_4  S_4  
     e( 47 - 47) =     14.23537  eV     1   --> A_2  D_2  S_2  
     e( 48 - 48) =     17.04104  eV     1   --> A_1  D_1  S_1  
     e( 49 - 49) =     17.63776  eV     1   --> B_2  D_4  S_4  
     e( 50 - 50) =     18.87180  eV     1   --> A_1  D_1  S_1  
     e( 51 - 51) =     19.13161  eV     1   --> A_2  D_2  S_2  
     e( 52 - 52) =     20.12028  eV     1   --> B_1  D_3  S_3  
     e( 53 - 53) =     20.84359  eV     1   --> A_2  D_2  S_2  
     e( 54 - 54) =     23.78628  eV     1   --> B_2  D_4  S_4  
     e( 55 - 55) =     23.90277  eV     1   --> A_1  D_1  S_1  
     e( 56 - 56) =     24.72426  eV     1   --> B_2  D_4  S_4  
     e( 57 - 57) =     25.16615  eV     1   --> B_1  D_3  S_3  
     e( 58 - 58) =     25.43912  eV     1   --> A_1  D_1  S_1  
     e( 59 - 59) =     25.91879  eV     1   --> A_1  D_1  S_1  
     e( 60 - 60) =     26.37761  eV     1   --> B_2  D_4  S_4  

 **************************************************************************

 **************************************************************************

                    xk=(   0.20000,   0.20000,   0.00000  )

     Band symmetry, C_2v (mm2)  point group:

     e(  1 -  1) =   -100.16519  eV     1   --> A_1  D_1  S_1  
     e(  2 -  3) =   -100.16480  eV     2   --> A_2  D_2  S_2  
     e(  2 -  3) =   -100.16480  eV     2   --> B_2  D_4  S_4  
     e(  4 -  4) =   -100.16440  eV     1   --> A_1  D_1  S_1  
     e(  5 -  5) =    -57.68591  eV     1   --> B_2  D_4  S_4  
     e(  6 -  6) =    -57.67601  eV     1   --> A_1  D_1  S_1  
     e(  7 -  8) =    -57.67324  eV     2   --> B_1  D_3  S_3  
     e(  7 -  8) =    -57.67324  eV     2   --> B_2  D_4  S_4  
     e(  9 -  9) =    -57.56637  eV     1   --> B_2  D_4  S_4  
     e( 10 - 10) =    -57.56624  eV     1   --> A_2  D_2  S_2  
     e( 11 - 11) =    -57.56112  eV     1   --> A_1  D_1  S_1  
     e( 12 - 12) =    -57.55944  eV     1   --> B_1  D_3  S_3  
     e( 13 - 13) =    -57.55905  eV     1   --> A_2  D_2  S_2  
     e( 14 - 14) =    -57.55836  eV     1   --> A_1  D_1  S_1  
     e( 15 - 15) =    -57.55657  eV     1   --> B_2  D_4  S_4  
     e( 16 - 16) =    -57.55604  eV     1   --> B_1  D_3  S_3  
     e( 17 - 17) =     -8.91245  eV     1   --> A_1  D_1  S_1  
     e( 18 - 18) =     -8.31680  eV     1   --> B_2  D_4  S_4  
     e( 19 - 19) =      3.36153  eV     1   --> A_2  D_2  S_2  
     e( 20 - 20) =      3.58909  eV     1   --> A_1  D_1  S_1  
     e( 21 - 21) =      3.82159  eV     1   --> B_2  D_4  S_4  
     e( 22 - 22) =      4.91637  eV     1   --> A_1  D_1  S_1  
     e( 23 - 23) =      5.35044  eV     1   --> B_2  D_4  S_4  
     e( 24 - 24) =      5.58477  eV     1   --> B_1  D_3  S_3  
     e( 25 - 25) =      6.23469  eV     1   --> A_1  D_1  S_1  
     e( 26 - 26) =      6.43581  eV     1   --> A_1  D_1  S_1  
     e( 27 - 27) =      6.69969  eV     1   --> A_2  D_2  S_2  
     e( 28 - 28) =      6.77977  eV     1   --> B_1  D_3  S_3  
     e( 29 - 29) =      6.87109  eV     1   --> B_2  D_4  S_4  
     e( 30 - 30) =      7.06951  eV     1   --> A_1  D_1  S_1  
     e( 31 - 31) =      7.33517  eV     1   --> B_1  D_3  S_3  
     e( 32 - 32) =      7.37596  eV     1   --> A_1  D_1  S_1  
     e( 33 - 33) =      7.41388  eV     1   --> A_2  D_2  S_2  
     e( 34 - 34) =      7.41863  eV     1   --> B_2  D_4  S_4  
     e( 35 - 35) =      7.57164  eV     1   --> A_2  D_2  S_2  
     e( 36 - 36) =      7.61449  eV     1   --> A_2  D_2  S_2  
     e( 37 - 37) =      7.67485  eV     1   --> B_2  D_4  S_4  
     e( 38 - 38) =      7.69715  eV     1   --> B_1  D_3  S_3  
     e( 39 - 39) =      7.96240  eV     1   --> A_1  D_1  S_1  
     e( 40 - 40) =      8.13484  eV     1   --> B_1  D_3  S_3  
     e( 41 - 41) =      8.33325  eV     1   --> B_2  D_4  S_4  
     e( 42 - 42) =      9.23435  eV     1   --> A_2  D_2  S_2  
     e( 43 - 43) =      9.92417  eV     1   --> B_2  D_4  S_4  
     e( 44 - 44) =     10.24217  eV     1   --> A_1  D_1  S_1  
     e( 45 - 45) =     12.09548  eV     1   --> A_1  D_1  S_1  
     e( 46 - 46) =     13.61567  eV     1   --> B_2  D_4  S_4  
     e( 47 - 47) =     13.98736  eV     1   --> A_2  D_2  S_2  
     e( 48 - 48) =     17.59883  eV     1   --> A_1  D_1  S_1  
     e( 49 - 49) =     17.76523  eV     1   --> B_2  D_4  S_4  
     e( 50 - 50) =     18.98441  eV     1   --> A_1  D_1  S_1  
     e( 51 - 51) =     19.35349  eV     1   --> A_2  D_2  S_2  
     e( 52 - 52) =     20.21927  eV     1   --> B_1  D_3  S_3  
     e( 53 - 53) =     20.45218  eV     1   --> A_2  D_2  S_2  
     e( 54 - 54) =     23.75293  eV     1   --> B_2  D_4  S_4  
     e( 55 - 55) =     24.07623  eV     1   --> A_1  D_1  S_1  
     e( 56 - 56) =     24.27619  eV     1   --> B_2  D_4  S_4  
     e( 57 - 57) =     25.04344  eV     1   --> B_1  D_3  S_3  
     e( 58 - 58) =     25.80533  eV     1   --> A_1  D_1  S_1  
     e( 59 - 59) =     25.90326  eV     1   --> A_1  D_1  S_1  
     e( 60 - 60) =     26.69780  eV     1   --> A_2  D_2  S_2  

 **************************************************************************

 **************************************************************************

                    xk=(   0.16667,   0.16667,   0.00000  )

     Band symmetry, C_2v (mm2)  point group:

     e(  1 -  1) =   -100.16523  eV     1   --> A_1  D_1  S_1  
     e(  2 -  3) =   -100.16479  eV     2   --> A_2  D_2  S_2  
     e(  2 -  3) =   -100.16479  eV     2   --> B_2  D_4  S_4  
     e(  4 -  4) =   -100.16449  eV     1   --> A_1  D_1  S_1  
     e(  5 -  5) =    -57.68660  eV     1   --> B_2  D_4  S_4  
     e(  6 -  6) =    -57.67524  eV     1   --> A_1  D_1  S_1  
     e(  7 -  8) =    -57.67324  eV     2   --> B_1  D_3  S_3  
     e(  7 -  8) =    -57.67324  eV     2   --> B_2  D_4  S_4  
     e(  9 -  9) =    -57.56679  eV     1   --> B_2  D_4  S_4  
     e( 10 - 10) =    -57.56664  eV     1   --> A_2  D_2  S_2  
     e( 11 - 11) =    -57.56068  eV     1   --> A_1  D_1  S_1  
     e( 12 - 12) =    -57.55948  eV     1   --> B_1  D_3  S_3  
     e( 13 - 13) =    -57.55925  eV     1   --> A_2  D_2  S_2  
     e( 14 - 14) =    -57.55772  eV     1   --> A_1  D_1  S_1  
     e( 15 - 15) =    -57.55637  eV     1   --> B_2  D_4  S_4  
     e( 16 - 16) =    -57.55600  eV     1   --> B_1  D_3  S_3  
     e( 17 - 17) =     -8.95484  eV     1   --> A_1  D_1  S_1  
     e( 18 - 18) =     -8.27163  eV     1   --> B_2  D_4  S_4  
     e( 19 - 19) =      3.33768  eV     1   --> A_2  D_2  S_2  
     e( 20 - 20) =      3.50076  eV     1   --> A_1  D_1  S_1  
     e( 21 - 21) =      3.66714  eV     1   --> B_2  D_4  S_4  
     e( 22 - 22) =      5.15835  eV     1   --> A_1  D_1  S_1  
     e( 23 - 23) =      5.53453  eV     1   --> B_2  D_4  S_4  
     e( 24 - 24) =      5.70608  eV     1   --> B_1  D_3  S_3  
     e( 25 - 25) =      6.14406  eV     1   --> A_1  D_1  S_1  
     e( 26 - 26) =      6.39803  eV     1   --> A_1  D_1  S_1  
     e( 27 - 27) =      6.66395  eV     1   --> A_2  D_2  S_2  
     e( 28 - 28) =      6.73169  eV     1   --> B_1  D_3  S_3  
     e( 29 - 29) =      6.86793  eV     1   --> B_2  D_4  S_4  
     e( 30 - 30) =      7.01467  eV     1   --> A_1  D_1  S_1  
     e( 31 - 31) =      7.35323  eV     1   --> B_1  D_3  S_3  
     e( 32 - 32) =      7.37013  eV     1   --> A_1  D_1  S_1  
     e( 33 - 33) =      7.47292  eV     1   --> A_2  D_2  S_2  
     e( 34 - 34) =      7.49836  eV     1   --> B_2  D_4  S_4  
     e( 35 - 35) =      7.60078  eV     1   --> A_2  D_2  S_2  
     e( 36 - 36) =      7.65816  eV     1   --> A_2  D_2  S_2  
     e( 37 - 37) =      7.68413  eV     1   --> B_2  D_4  S_4  
     e( 38 - 38) =      7.72372  eV     1   --> B_1  D_3  S_3  
     e( 39 - 39) =      7.89118  eV     1   --> A_1  D_1  S_1  
     e( 40 - 40) =      8.01489  eV     1   --> B_1  D_3  S_3  
     e( 41 - 41) =      8.17232  eV     1   --> B_2  D_4  S_4  
     e( 42 - 42) =      9.45532  eV     1   --> A_2  D_2  S_2  
     e( 43 - 43) =     10.01908  eV     1   --> B_2  D_4  S_4  
     e( 44 - 44) =     10.29957  eV     1   --> A_1  D_1  S_1  
     e( 45 - 45) =     11.87984  eV     1   --> A_1  D_1  S_1  
     e( 46 - 46) =     13.40987  eV     1   --> B_2  D_4  S_4  
     e( 47 - 47) =     13.70756  eV     1   --> A_2  D_2  S_2  
     e( 48 - 48) =     18.00317  eV     1   --> B_2  D_4  S_4  
     e( 49 - 49) =     18.19352  eV     1   --> A_1  D_1  S_1  
     e( 50 - 50) =     19.08799  eV     1   --> A_1  D_1  S_1  
     e( 51 - 51) =     19.56194  eV     1   --> A_2  D_2  S_2  
     e( 52 - 52) =     20.16403  eV     1   --> A_2  D_2  S_2  
     e( 53 - 53) =     20.32378  eV     1   --> B_1  D_3  S_3  
     e( 54 - 54) =     23.51756  eV     1   --> B_2  D_4  S_4  
     e( 55 - 55) =     24.05555  eV     1   --> B_2  D_4  S_4  
     e( 56 - 56) =     24.17307  eV     1   --> A_1  D_1  S_1  
     e( 57 - 57) =     24.87457  eV     1   --> B_1  D_3  S_3  
     e( 58 - 58) =     25.79568  eV     1   --> A_1  D_1  S_1  
     e( 59 - 59) =     26.05318  eV     1   --> A_2  D_2  S_2  
     e( 60 - 60) =     26.32156  eV     1   --> A_1  D_1  S_1  

 **************************************************************************

 **************************************************************************

                    xk=(   0.13333,   0.13333,   0.00000  )

     Band symmetry, C_2v (mm2)  point group:

     e(  1 -  1) =   -100.16528  eV     1   --> A_1  D_1  S_1  
     e(  2 -  3) =   -100.16480  eV     2   --> A_2  D_2  S_2  
     e(  2 -  3) =   -100.16480  eV     2   --> B_2  D_4  S_4  
     e(  4 -  4) =   -100.16459  eV     1   --> A_1  D_1  S_1  
     e(  5 -  5) =    -57.68720  eV     1   --> B_2  D_4  S_4  
     e(  6 -  6) =    -57.67456  eV     1   --> A_1  D_1  S_1  
     e(  7 -  8) =    -57.67324  eV     2   --> B_1  D_3  S_3  
     e(  7 -  8) =    -57.67324  eV     2   --> B_2  D_4  S_4  
     e(  9 -  9) =    -57.56715  eV     1   --> B_2  D_4  S_4  
     e( 10 - 10) =    -57.56701  eV     1   --> A_2  D_2  S_2  
     e( 11 - 11) =    -57.56030  eV     1   --> A_1  D_1  S_1  
     e( 12 - 12) =    -57.55952  eV     1   --> B_1  D_3  S_3  
     e( 13 - 13) =    -57.55939  eV     1   --> A_2  D_2  S_2  
     e( 14 - 14) =    -57.55712  eV     1   --> A_1  D_1  S_1  
     e( 15 - 15) =    -57.55620  eV     1   --> B_2  D_4  S_4  
     e( 16 - 16) =    -57.55597  eV     1   --> B_1  D_3  S_3  
     e( 17 - 17) =     -8.99199  eV     1   --> A_1  D_1  S_1  
     e( 18 - 18) =     -8.23100  eV     1   --> B_2  D_4  S_4  
     e( 19 - 19) =      3.31662  eV     1   --> A_2  D_2  S_2  
     e( 20 - 20) =      3.42336  eV     1   --> A_1  D_1  S_1  
     e( 21 - 21) =      3.53271  eV     1   --> B_2  D_4  S_4  
     e( 22 - 22) =      5.39784  eV     1   --> A_1  D_1  S_1  
     e( 23 - 23) =      5.72864  eV     1   --> B_2  D_4  S_4  
     e( 24 - 24) =      5.83270  eV     1   --> B_1  D_3  S_3  
     e( 25 - 25) =      6.07512  eV     1   --> A_1  D_1  S_1  
     e( 26 - 26) =      6.36629  eV     1   --> A_1  D_1  S_1  
     e( 27 - 27) =      6.63385  eV     1   --> A_2  D_2  S_2  
     e( 28 - 28) =      6.67906  eV     1   --> B_1  D_3  S_3  
     e( 29 - 29) =      6.85355  eV     1   --> B_2  D_4  S_4  
     e( 30 - 30) =      6.95071  eV     1   --> A_1  D_1  S_1  
     e( 31 - 31) =      7.36598  eV     1   --> B_1  D_3  S_3  
     e( 32 - 32) =      7.36890  eV     1   --> A_1  D_1  S_1  
     e( 33 - 33) =      7.51423  eV     1   --> A_2  D_2  S_2  
     e( 34 - 34) =      7.55968  eV     1   --> B_2  D_4  S_4  
     e( 35 - 35) =      7.61922  eV     1   --> A_2  D_2  S_2  
     e( 36 - 36) =      7.70541  eV     1   --> B_2  D_4  S_4  
     e( 37 - 37) =      7.71010  eV     1   --> A_2  D_2  S_2  
     e( 38 - 38) =      7.74137  eV     1   --> B_1  D_3  S_3  
     e( 39 - 39) =      7.80929  eV     1   --> A_1  D_1  S_1  
     e( 40 - 40) =      7.90908  eV     1   --> B_1  D_3  S_3  
     e( 41 - 41) =      8.00847  eV     1   --> B_2  D_4  S_4  
     e( 42 - 42) =      9.69811  eV     1   --> A_2  D_2  S_2  
     e( 43 - 43) =     10.12527  eV     1   --> B_2  D_4  S_4  
     e( 44 - 44) =     10.34897  eV     1   --> A_1  D_1  S_1  
     e( 45 - 45) =     11.68632  eV     1   --> A_1  D_1  S_1  
     e( 46 - 46) =     13.17088  eV     1   --> B_2  D_4  S_4  
     e( 47 - 47) =     13.40632  eV     1   --> A_2  D_2  S_2  
     e( 48 - 48) =     18.31262  eV     1   --> B_2  D_4  S_4  
     e( 49 - 49) =     18.80359  eV     1   --> A_1  D_1  S_1  
     e( 50 - 50) =     19.18619  eV     1   --> A_1  D_1  S_1  
     e( 51 - 51) =     19.63732  eV     1   --> A_2  D_2  S_2  
     e( 52 - 52) =     20.08860  eV     1   --> A_2  D_2  S_2  
     e( 53 - 53) =     20.42835  eV     1   --> B_1  D_3  S_3  
     e( 54 - 54) =     23.10366  eV     1   --> B_2  D_4  S_4  
     e( 55 - 55) =     24.04275  eV     1   --> B_2  D_4  S_4  
     e( 56 - 56) =     24.20678  eV     1   --> A_1  D_1  S_1  
     e( 57 - 57) =     24.68231  eV     1   --> B_1  D_3  S_3  
     e( 58 - 58) =     25.46310  eV     1   --> A_2  D_2  S_2  
     e( 59 - 59) =     25.68179  eV     1   --> A_1  D_1  S_1  
     e( 60 - 60) =     26.76454  eV     1   --> A_1  D_1  S_1  

 **************************************************************************

 **************************************************************************

                    xk=(   0.10000,   0.10000,   0.00000  )

     Band symmetry, C_2v (mm2)  point group:

     e(  1 -  1) =   -100.16533  eV     1   --> A_1  D_1  S_1  
     e(  2 -  4) =   -100.16482  eV     3   --> A_1  D_1  S_1  
     e(  2 -  4) =   -100.16482  eV     3   --> A_2  D_2  S_2  
     e(  2 -  4) =   -100.16482  eV     3   --> B_2  D_4  S_4  
     e(  5 -  5) =    -57.68770  eV     1   --> B_2  D_4  S_4  
     e(  6 -  6) =    -57.67400  eV     1   --> A_1  D_1  S_1  
     e(  7 -  8) =    -57.67323  eV     2   --> B_1  D_3  S_3  
     e(  7 -  8) =    -57.67323  eV     2   --> B_2  D_4  S_4  
     e(  9 - 10) =    -57.56743  eV     2   --> A_2  D_2  S_2  
     e(  9 - 10) =    -57.56743  eV     2   --> B_2  D_4  S_4  
     e( 11 - 11) =    -57.56000  eV     1   --> A_1  D_1  S_1  
     e( 12 - 13) =    -57.55955  eV     2   --> A_2  D_2  S_2  
     e( 12 - 13) =    -57.55955  eV     2   --> B_1  D_3  S_3  
     e( 14 - 14) =    -57.55661  eV     1   --> A_1  D_1  S_1  
     e( 15 - 15) =    -57.55607  eV     1   --> B_2  D_4  S_4  
     e( 16 - 16) =    -57.55594  eV     1   --> B_1  D_3  S_3  
     e( 17 - 17) =     -9.02245  eV     1   --> A_1  D_1  S_1  
     e( 18 - 18) =     -8.19694  eV     1   --> B_2  D_4  S_4  
     e( 19 - 19) =      3.29925  eV     1   --> A_2  D_2  S_2  
     e( 20 - 20) =      3.36025  eV     1   --> A_1  D_1  S_1  
     e( 21 - 21) =      3.42310  eV     1   --> B_2  D_4  S_4  
     e( 22 - 22) =      5.60758  eV     1   --> A_1  D_1  S_1  
     e( 23 - 23) =      5.92818  eV     1   --> B_2  D_4  S_4  
     e( 24 - 24) =      5.96125  eV     1   --> B_1  D_3  S_3  
     e( 25 - 25) =      6.04917  eV     1   --> A_1  D_1  S_1  
     e( 26 - 26) =      6.34217  eV     1   --> A_1  D_1  S_1  
     e( 27 - 27) =      6.60992  eV     1   --> A_2  D_2  S_2  
     e( 28 - 28) =      6.61943  eV     1   --> B_1  D_3  S_3  
     e( 29 - 29) =      6.82044  eV     1   --> B_2  D_4  S_4  
     e( 30 - 30) =      6.87556  eV     1   --> A_1  D_1  S_1  
     e( 31 - 31) =      7.36843  eV     1   --> A_1  D_1  S_1  
     e( 32 - 32) =      7.37164  eV     1   --> B_1  D_3  S_3  
     e( 33 - 33) =      7.54169  eV     1   --> A_2  D_2  S_2  
     e( 34 - 34) =      7.59272  eV     1   --> B_2  D_4  S_4  
     e( 35 - 35) =      7.63303  eV     1   --> A_2  D_2  S_2  
     e( 36 - 36) =      7.72312  eV     1   --> A_1  D_1  S_1  
     e( 37 - 37) =      7.73557  eV     1   --> B_1  D_3  S_3  
     e( 38 - 38) =      7.74138  eV     1   --> B_2  D_4  S_4  
     e( 39 - 39) =      7.75762  eV     1   --> A_2  D_2  S_2  
     e( 40 - 40) =      7.83942  eV     1   --> B_1  D_3  S_3  
     e( 41 - 41) =      7.85625  eV     1   --> B_2  D_4  S_4  
     e( 42 - 42) =      9.95026  eV     1   --> A_2  D_2  S_2  
     e( 43 - 43) =     10.23571  eV     1   --> B_2  D_4  S_4  
     e( 44 - 44) =     10.38887  eV     1   --> A_1  D_1  S_1  
     e( 45 - 45) =     11.52506  eV     1   --> A_1  D_1  S_1  
     e( 46 - 46) =     12.93211  eV     1   --> B_2  D_4  S_4  
     e( 47 - 47) =     13.10129  eV     1   --> A_2  D_2  S_2  
     e( 48 - 48) =     18.65271  eV     1   --> B_2  D_4  S_4  
     e( 49 - 49) =     19.20616  eV     1   --> A_1  D_1  S_1  
     e( 50 - 50) =     19.47699  eV     1   --> A_1  D_1  S_1  
     e( 51 - 51) =     19.53171  eV     1   --> A_2  D_2  S_2  
     e( 52 - 52) =     20.25537  eV     1   --> A_2  D_2  S_2  
     e( 53 - 53) =     20.52548  eV     1   --> B_1  D_3  S_3  
     e( 54 - 54) =     22.67969  eV     1   --> B_2  D_4  S_4  
     e( 55 - 55) =     24.07598  eV     1   --> B_2  D_4  S_4  
     e( 56 - 56) =     24.20436  eV     1   --> A_1  D_1  S_1  
     e( 57 - 57) =     24.49482  eV     1   --> B_1  D_3  S_3  
     e( 58 - 58) =     24.94669  eV     1   --> A_2  D_2  S_2  
     e( 59 - 59) =     25.34803  eV     1   --> A_1  D_1  S_1  
     e( 60 - 60) =     27.10708  eV     1   --> A_1  D_1  S_1  

 **************************************************************************

 **************************************************************************

                    xk=(   0.06667,   0.06667,   0.00000  )

     Band symmetry, C_2v (mm2)  point group:

     e(  1 -  1) =   -100.16537  eV     1   --> A_1  D_1  S_1  
     e(  2 -  4) =   -100.16483  eV     3   --> A_1  D_1  S_1  
     e(  2 -  4) =   -100.16483  eV     3   --> A_2  D_2  S_2  
     e(  2 -  4) =   -100.16483  eV     3   --> B_2  D_4  S_4  
     e(  5 -  5) =    -57.68807  eV     1   --> B_2  D_4  S_4  
     e(  6 -  6) =    -57.67357  eV     1   --> A_1  D_1  S_1  
     e(  7 -  8) =    -57.67323  eV     2   --> B_1  D_3  S_3  
     e(  7 -  8) =    -57.67323  eV     2   --> B_2  D_4  S_4  
     e(  9 - 10) =    -57.56763  eV     2   --> A_2  D_2  S_2  
     e(  9 - 10) =    -57.56763  eV     2   --> B_2  D_4  S_4  
     e( 11 - 11) =    -57.55977  eV     1   --> A_1  D_1  S_1  
     e( 12 - 13) =    -57.55957  eV     2   --> A_2  D_2  S_2  
     e( 12 - 13) =    -57.55957  eV     2   --> B_1  D_3  S_3  
     e( 14 - 14) =    -57.55622  eV     1   --> A_1  D_1  S_1  
     e( 15 - 16) =    -57.55597  eV     2   --> B_1  D_3  S_3  
     e( 15 - 16) =    -57.55597  eV     2   --> B_2  D_4  S_4  
     e( 17 - 17) =     -9.04506  eV     1   --> A_1  D_1  S_1  
     e( 18 - 18) =     -8.17121  eV     1   --> B_2  D_4  S_4  
     e( 19 - 19) =      3.28630  eV     1   --> A_2  D_2  S_2  
     e( 20 - 20) =      3.31370  eV     1   --> A_1  D_1  S_1  
     e( 21 - 21) =      3.34208  eV     1   --> B_2  D_4  S_4  
     e( 22 - 22) =      5.73225  eV     1   --> A_1  D_1  S_1  
     e( 23 - 23) =      6.08676  eV     1   --> B_1  D_3  S_3  
     e( 24 - 24) =      6.11014  eV     1   --> A_1  D_1  S_1  
     e( 25 - 25) =      6.12659  eV     1   --> B_2  D_4  S_4  
     e( 26 - 26) =      6.32977  eV     1   --> A_1  D_1  S_1  
     e( 27 - 27) =      6.55078  eV     1   --> B_1  D_3  S_3  
     e( 28 - 28) =      6.59255  eV     1   --> A_2  D_2  S_2  
     e( 29 - 29) =      6.75902  eV     1   --> B_2  D_4  S_4  
     e( 30 - 30) =      6.78308  eV     1   --> A_1  D_1  S_1  
     e( 31 - 31) =      7.36653  eV     1   --> A_1  D_1  S_1  
     e( 32 - 32) =      7.36989  eV     1   --> B_1  D_3  S_3  
     e( 33 - 33) =      7.55898  eV     1   --> A_2  D_2  S_2  
     e( 34 - 34) =      7.60130  eV     1   --> B_2  D_4  S_4  
     e( 35 - 35) =      7.64330  eV     1   --> A_2  D_2  S_2  
     e( 36 - 36) =      7.64503  eV     1   --> A_1  D_1  S_1  
     e( 37 - 37) =      7.69708  eV     1   --> B_1  D_3  S_3  
     e( 38 - 38) =      7.72730  eV     1   --> B_2  D_4  S_4  
     e( 39 - 39) =      7.78817  eV     1   --> B_2  D_4  S_4  
     e( 40 - 40) =      7.79437  eV     1   --> A_2  D_2  S_2  
     e( 41 - 41) =      7.82235  eV     1   --> B_1  D_3  S_3  
     e( 42 - 42) =     10.18824  eV     1   --> A_2  D_2  S_2  
     e( 43 - 43) =     10.33807  eV     1   --> B_2  D_4  S_4  
     e( 44 - 44) =     10.41815  eV     1   --> A_1  D_1  S_1  
     e( 45 - 45) =     11.40417  eV     1   --> A_1  D_1  S_1  
     e( 46 - 46) =     12.72539  eV     1   --> B_2  D_4  S_4  
     e( 47 - 47) =     12.82111  eV     1   --> A_2  D_2  S_2  
     e( 48 - 48) =     18.97760  eV     1   --> B_2  D_4  S_4  
     e( 49 - 49) =     19.27740  eV     1   --> A_1  D_1  S_1  
     e( 50 - 50) =     19.41881  eV     1   --> A_2  D_2  S_2  
     e( 51 - 51) =     20.04042  eV     1   --> A_1  D_1  S_1  
     e( 52 - 52) =     20.46177  eV     1   --> A_2  D_2  S_2  
     e( 53 - 53) =     20.60586  eV     1   --> B_1  D_3  S_3  
     e( 54 - 54) =     22.30342  eV     1   --> B_2  D_4  S_4  
     e( 55 - 55) =     24.11451  eV     1   --> B_2  D_4  S_4  
     e( 56 - 56) =     24.18887  eV     1   --> A_1  D_1  S_1  
     e( 57 - 57) =     24.33860  eV     1   --> B_1  D_3  S_3  
     e( 58 - 58) =     24.53087  eV     1   --> A_2  D_2  S_2  
     e( 59 - 59) =     24.83980  eV     1   --> A_1  D_1  S_1  
     e( 60 - 60) =     27.17004  eV     1   --> A_1  D_1  S_1  

 **************************************************************************

 **************************************************************************

                    xk=(   0.03333,   0.03333,   0.00000  )

     Band symmetry, C_2v (mm2)  point group:

     e(  1 -  1) =   -100.16540  eV     1   --> A_1  D_1  S_1  
     e(  2 -  4) =   -100.16485  eV     3   --> A_1  D_1  S_1  
     e(  2 -  4) =   -100.16485  eV     3   --> A_2  D_2  S_2  
     e(  2 -  4) =   -100.16485  eV     3   --> B_2  D_4  S_4  
     e(  5 -  5) =    -57.68829  eV     1   --> B_2  D_4  S_4  
     e(  6 -  8) =    -57.67331  eV     3   --> A_1  D_1  S_1  
     e(  6 -  8) =    -57.67331  eV     3   --> B_1  D_3  S_3  
     e(  6 -  8) =    -57.67331  eV     3   --> B_2  D_4  S_4  
     e(  9 - 10) =    -57.56775  eV     2   --> A_2  D_2  S_2  
     e(  9 - 10) =    -57.56775  eV     2   --> B_2  D_4  S_4  
     e( 11 - 13) =    -57.55963  eV     3   --> A_1  D_1  S_1  
     e( 11 - 13) =    -57.55963  eV     3   --> A_2  D_2  S_2  
     e( 11 - 13) =    -57.55963  eV     3   --> B_1  D_3  S_3  
     e( 14 - 16) =    -57.55598  eV     3   --> A_1  D_1  S_1  
     e( 14 - 16) =    -57.55598  eV     3   --> B_1  D_3  S_3  
     e( 14 - 16) =    -57.55598  eV     3   --> B_2  D_4  S_4  
     e( 17 - 17) =     -9.05897  eV     1   --> A_1  D_1  S_1  
     e( 18 - 18) =     -8.15518  eV     1   --> B_2  D_4  S_4  
     e( 19 - 19) =      3.27831  eV     1   --> A_2  D_2  S_2  
     e( 20 - 20) =      3.28520  eV     1   --> A_1  D_1  S_1  
     e( 21 - 21) =      3.29237  eV     1   --> B_2  D_4  S_4  
     e( 22 - 22) =      5.76545  eV     1   --> A_1  D_1  S_1  
     e( 23 - 23) =      6.19940  eV     1   --> B_1  D_3  S_3  
     e( 24 - 24) =      6.22580  eV     1   --> A_1  D_1  S_1  
     e( 25 - 25) =      6.31212  eV     1   --> B_2  D_4  S_4  
     e( 26 - 26) =      6.35406  eV     1   --> A_1  D_1  S_1  
     e( 27 - 27) =      6.47583  eV     1   --> B_1  D_3  S_3  
     e( 28 - 28) =      6.58202  eV     1   --> A_2  D_2  S_2  
     e( 29 - 29) =      6.66366  eV     1   --> B_2  D_4  S_4  
     e( 30 - 30) =      6.66905  eV     1   --> A_1  D_1  S_1  
     e( 31 - 31) =      7.36309  eV     1   --> A_1  D_1  S_1  
     e( 32 - 32) =      7.36419  eV     1   --> B_1  D_3  S_3  
     e( 33 - 33) =      7.56850  eV     1   --> A_2  D_2  S_2  
     e( 34 - 34) =      7.58669  eV     1   --> B_2  D_4  S_4  
     e( 35 - 35) =      7.59071  eV     1   --> A_1  D_1  S_1  
     e( 36 - 36) =      7.64974  eV     1   --> A_2  D_2  S_2  
     e( 37 - 37) =      7.66355  eV     1   --> B_1  D_3  S_3  
     e( 38 - 38) =      7.66474  eV     1   --> B_2  D_4  S_4  
     e( 39 - 39) =      7.81490  eV     1   --> B_2  D_4  S_4  
     e( 40 - 40) =      7.81732  eV     1   --> A_2  D_2  S_2  
     e( 41 - 41) =      7.82368  eV     1   --> B_1  D_3  S_3  
     e( 42 - 42) =     10.37082  eV     1   --> A_2  D_2  S_2  
     e( 43 - 43) =     10.41365  eV     1   --> B_2  D_4  S_4  
     e( 44 - 44) =     10.43602  eV     1   --> A_1  D_1  S_1  
     e( 45 - 45) =     11.32938  eV     1   --> A_1  D_1  S_1  
     e( 46 - 46) =     12.58234  eV     1   --> B_2  D_4  S_4  
     e( 47 - 47) =     12.61130  eV     1   --> A_2  D_2  S_2  
     e( 48 - 48) =     19.22630  eV     1   --> B_2  D_4  S_4  
     e( 49 - 49) =     19.31181  eV     1   --> A_1  D_1  S_1  
     e( 50 - 50) =     19.34711  eV     1   --> A_2  D_2  S_2  
     e( 51 - 51) =     20.49464  eV     1   --> A_1  D_1  S_1  
     e( 52 - 52) =     20.61914  eV     1   --> A_2  D_2  S_2  
     e( 53 - 53) =     20.65954  eV     1   --> B_1  D_3  S_3  
     e( 54 - 54) =     22.02815  eV     1   --> B_2  D_4  S_4  
     e( 55 - 55) =     24.14351  eV     1   --> B_2  D_4  S_4  
     e( 56 - 56) =     24.17353  eV     1   --> A_1  D_1  S_1  
     e( 57 - 57) =     24.23516  eV     1   --> B_1  D_3  S_3  
     e( 58 - 58) =     24.25319  eV     1   --> A_2  D_2  S_2  
     e( 59 - 59) =     24.37810  eV     1   --> A_1  D_1  S_1  
     e( 60 - 60) =     27.19147  eV     1   --> A_1  D_1  S_1  

 **************************************************************************

 **************************************************************************

                    xk=(   0.00000,   0.00000,   0.00000  )

     point group O_h (m-3m) 
     there are 10 classes
     the character table:

       E     8C3   3C2   6C4   6C2'  i     8S6   3s_h  6S4   6s_d 
A_1g   1.00  1.00  1.00  1.00  1.00  1.00  1.00  1.00  1.00  1.00
A_2g   1.00  1.00  1.00 -1.00 -1.00  1.00  1.00  1.00 -1.00 -1.00
E_g    2.00 -1.00  2.00  0.00  0.00  2.00 -1.00  2.00  0.00  0.00
T_1g   3.00  0.00 -1.00  1.00 -1.00  3.00  0.00 -1.00  1.00 -1.00
T_2g   3.00  0.00 -1.00 -1.00  1.00  3.00  0.00 -1.00 -1.00  1.00
A_1u   1.00  1.00  1.00  1.00  1.00 -1.00 -1.00 -1.00 -1.00 -1.00
A_2u   1.00  1.00  1.00 -1.00 -1.00 -1.00 -1.00 -1.00  1.00  1.00
E_u    2.00 -1.00  2.00  0.00  0.00 -2.00  1.00 -2.00  0.00  0.00
T_1u   3.00  0.00 -1.00  1.00 -1.00 -3.00  0.00  1.00 -1.00  1.00
T_2u   3.00  0.00 -1.00 -1.00  1.00 -3.00  0.00  1.00  1.00 -1.00

     the symmetry operations in each class and the name of the first element:

     E        1
                                                                 
     8C3     17   19   20   18   24   21   22   23
                                                                 
     3C2      2    4    3
                                                                 
     6C4      7    8   15   16   12   11
                                                                 
     6C2'     5    6   14   13   10    9
                                                                 
     i       25
                                                                 
     8S6     41   43   44   42   48   45   46   47
                                                                 
     3s_h    26   28   27
                                                                 
     6S4     31   32   39   40   36   35
                                                                 
     6s_d    29   30   38   37   34   33
                                                                 

     Band symmetry, O_h (m-3m)  point group:

     e(  1 -  1) =   -100.16541  eV     1   --> A_1g G_1   G_1+
     e(  2 -  4) =   -100.16485  eV     3   --> T_2g G_25' G_5+
     e(  5 -  5) =    -57.68837  eV     1   --> A_2u G_2'  G_2-
     e(  6 -  8) =    -57.67322  eV     3   --> T_1u G_15  G_4-
     e(  9 - 10) =    -57.56779  eV     2   --> E_u  G_12' G_3-
     e( 11 - 13) =    -57.55959  eV     3   --> T_2u G_25  G_5-
     e( 14 - 16) =    -57.55590  eV     3   --> T_1u G_15  G_4-
     e( 17 - 17) =     -9.06367  eV     1   --> A_1g G_1   G_1+
     e( 18 - 18) =     -8.14974  eV     1   --> A_2u G_2'  G_2-
     e( 19 - 21) =      3.27561  eV     3   --> T_2g G_25' G_5+
     e( 22 - 22) =      5.76918  eV     1   --> A_1g G_1   G_1+
     e( 23 - 24) =      6.25987  eV     2   --> E_g  G_12  G_3+
     e( 25 - 27) =      6.42859  eV     3   --> T_1u G_15  G_4-
     e( 28 - 30) =      6.57849  eV     3   --> T_2g G_25' G_5+
     e( 31 - 32) =      7.36111  eV     2   --> E_g  G_12  G_3+
     e( 33 - 35) =      7.57154  eV     3   --> T_2g G_25' G_5+
     e( 36 - 38) =      7.65194  eV     3   --> T_1g G_15' G_4+
     e( 39 - 41) =      7.82510  eV     3   --> T_1g G_15' G_4+
     e( 42 - 44) =     10.44203  eV     3   --> T_2g G_25' G_5+
     e( 45 - 45) =     11.30408  eV     1   --> A_1g G_1   G_1+
     e( 46 - 47) =     12.53068  eV     2   --> E_u  G_12' G_3-
     e( 48 - 50) =     19.32298  eV     3   --> T_2g G_25' G_5+
     e( 51 - 53) =     20.67848  eV     3   --> T_2u G_25  G_5-
     e( 54 - 54) =     21.92335  eV     1   --> A_2u G_2'  G_2-
     e( 55 - 57) =     24.15424  eV     3   --> T_2g G_25' G_5+
     e( 58 - 59) =     24.19895  eV     2   --> E_g  G_12  G_3+
     e( 60 - 60) =     27.20372  eV     1   -->   ?

 **************************************************************************

 **************************************************************************

                    xk=(   0.00000,   0.03333,   0.00000  )

     point group C_4v (4mm) 
     there are  5 classes
     the character table:

       E     2C4   C2    2s_v  2s_d 
A_1    1.00  1.00  1.00  1.00  1.00
A_2    1.00  1.00  1.00 -1.00 -1.00
B_1    1.00 -1.00  1.00  1.00 -1.00
B_2    1.00 -1.00  1.00 -1.00  1.00
E      2.00  0.00 -2.00  0.00  0.00

     the symmetry operations in each class and the name of the first element:

     E        1
                                                                 
     2C4      3    4
                                                                 
     C2       2
                                                                 
     2s_v     5    6
                                                                 
     2s_d     7    8
                                                                 

     Band symmetry, C_4v (4mm)  point group:

     e(  1 -  1) =   -100.16540  eV     1   --> A_1  G_1 D_1   
     e(  2 -  4) =   -100.16485  eV     3   --> B_2  G_4 D_2'  
     e(  2 -  4) =   -100.16485  eV     3   --> E    G_5 D_5   
     e(  5 -  5) =    -57.68833  eV     1   --> B_2  G_4 D_2'  
     e(  6 -  8) =    -57.67327  eV     3   --> A_1  G_1 D_1   
     e(  6 -  8) =    -57.67327  eV     3   --> E    G_5 D_5   
     e(  9 - 10) =    -57.56777  eV     2   --> A_2  G_2 D_1'  
     e(  9 - 10) =    -57.56777  eV     2   --> B_2  G_4 D_2'  
     e( 11 - 13) =    -57.55961  eV     3   --> B_1  G_3 D_2   
     e( 11 - 13) =    -57.55961  eV     3   --> E    G_5 D_5   
     e( 14 - 16) =    -57.55593  eV     3   --> A_1  G_1 D_1   
     e( 14 - 16) =    -57.55593  eV     3   --> E    G_5 D_5   
     e( 17 - 17) =     -9.06131  eV     1   --> A_1  G_1 D_1   
     e( 18 - 18) =     -8.15247  eV     1   --> B_2  G_4 D_2'  
     e( 19 - 20) =      3.28041  eV     2   --> E    G_5 D_5   
     e( 21 - 21) =      3.28056  eV     1   --> B_2  G_4 D_2'  
     e( 22 - 22) =      5.76777  eV     1   --> A_1  G_1 D_1   
     e( 23 - 23) =      6.21775  eV     1   --> A_1  G_1 D_1   
     e( 24 - 24) =      6.26195  eV     1   --> B_1  G_3 D_2   
     e( 25 - 26) =      6.35989  eV     2   --> E    G_5 D_5   
     e( 27 - 27) =      6.46736  eV     1   --> A_1  G_1 D_1   
     e( 28 - 28) =      6.57960  eV     1   --> B_2  G_4 D_2'  
     e( 29 - 30) =      6.63217  eV     2   --> E    G_5 D_5   
     e( 31 - 31) =      7.36196  eV     1   --> B_1  G_3 D_2   
     e( 32 - 32) =      7.36310  eV     1   --> A_1  G_1 D_1   
     e( 33 - 33) =      7.56957  eV     1   --> B_2  G_4 D_2'  
     e( 34 - 35) =      7.58029  eV     2   --> E    G_5 D_5   
     e( 36 - 36) =      7.64995  eV     1   --> A_2  G_2 D_1'  
     e( 37 - 38) =      7.65851  eV     2   --> E    G_5 D_5   
     e( 39 - 39) =      7.81687  eV     1   --> A_2  G_2 D_1'  
     e( 40 - 41) =      7.82435  eV     2   --> E    G_5 D_5   
     e( 42 - 42) =     10.39439  eV     1   --> B_2  G_4 D_2'  
     e( 43 - 44) =     10.43902  eV     2   --> E    G_5 D_5   
     e( 45 - 45) =     11.31675  eV     1   --> A_1  G_1 D_1   
     e( 46 - 46) =     12.54922  eV     1   --> A_2  G_2 D_1'  
     e( 47 - 47) =     12.57916  eV     1   --> B_2  G_4 D_2'  
     e( 48 - 48) =     19.29098  eV     1   --> B_2  G_4 D_2'  
     e( 49 - 50) =     19.31744  eV     2   --> E    G_5 D_5   
     e( 51 - 51) =     20.60377  eV     1   --> B_1  G_3 D_2   
     e( 52 - 53) =     20.64829  eV     2   --> E    G_5 D_5   
     e( 54 - 54) =     21.97700  eV     1   --> B_2  G_4 D_2'  
     e( 55 - 55) =     24.15992  eV     1   --> B_2  G_4 D_2'  
     e( 56 - 57) =     24.19294  eV     2   --> E    G_5 D_5   
     e( 58 - 58) =     24.19310  eV     1   --> A_1  G_1 D_1   
     e( 59 - 59) =     24.28759  eV     1   --> B_1  G_3 D_2   
     e( 60 - 60) =     27.17914  eV     1   --> A_1  G_1 D_1   

 **************************************************************************

 **************************************************************************

                    xk=(   0.00000,   0.06667,   0.00000  )

     Band symmetry, C_4v (4mm)  point group:

     e(  1 -  1) =   -100.16539  eV     1   --> A_1  G_1 D_1   
     e(  2 -  4) =   -100.16486  eV     3   --> B_2  G_4 D_2'  
     e(  2 -  4) =   -100.16486  eV     3   --> E    G_5 D_5   
     e(  5 -  5) =    -57.68822  eV     1   --> B_2  G_4 D_2'  
     e(  6 -  6) =    -57.67340  eV     1   --> A_1  G_1 D_1   
     e(  7 -  8) =    -57.67323  eV     2   --> E    G_5 D_5   
     e(  9 - 10) =    -57.56772  eV     2   --> A_2  G_2 D_1'  
     e(  9 - 10) =    -57.56772  eV     2   --> B_2  G_4 D_2'  
     e( 11 - 11) =    -57.55969  eV     1   --> B_1  G_3 D_2   
     e( 12 - 13) =    -57.55957  eV     2   --> E    G_5 D_5   
     e( 14 - 14) =    -57.55603  eV     1   --> A_1  G_1 D_1   
     e( 15 - 16) =    -57.55593  eV     2   --> E    G_5 D_5   
     e( 17 - 17) =     -9.05428  eV     1   --> A_1  G_1 D_1   
     e( 18 - 18) =     -8.16062  eV     1   --> B_2  G_4 D_2'  
     e( 19 - 20) =      3.29480  eV     2   --> E    G_5 D_5   
     e( 21 - 21) =      3.29536  eV     1   --> B_2  G_4 D_2'  
     e( 22 - 22) =      5.75965  eV     1   --> A_1  G_1 D_1   
     e( 23 - 23) =      6.14273  eV     1   --> A_1  G_1 D_1   
     e( 24 - 25) =      6.23711  eV     2   --> E    G_5 D_5   
     e( 26 - 26) =      6.26821  eV     1   --> B_1  G_3 D_2   
     e( 27 - 27) =      6.53653  eV     1   --> A_1  G_1 D_1   
     e( 28 - 28) =      6.58290  eV     1   --> B_2  G_4 D_2'  
     e( 29 - 30) =      6.71127  eV     2   --> E    G_5 D_5   
     e( 31 - 31) =      7.36451  eV     1   --> B_1  G_3 D_2   
     e( 32 - 32) =      7.36896  eV     1   --> A_1  G_1 D_1   
     e( 33 - 33) =      7.56373  eV     1   --> B_2  G_4 D_2'  
     e( 34 - 35) =      7.59608  eV     2   --> E    G_5 D_5   
     e( 36 - 36) =      7.64343  eV     1   --> A_2  G_2 D_1'  
     e( 37 - 38) =      7.68645  eV     2   --> E    G_5 D_5   
     e( 39 - 39) =      7.79331  eV     1   --> A_2  G_2 D_1'  
     e( 40 - 41) =      7.82291  eV     2   --> E    G_5 D_5   
     e( 42 - 42) =     10.26427  eV     1   --> B_2  G_4 D_2'  
     e( 43 - 44) =     10.43002  eV     2   --> E    G_5 D_5   
     e( 45 - 45) =     11.35451  eV     1   --> A_1  G_1 D_1   
     e( 46 - 46) =     12.60425  eV     1   --> A_2  G_2 D_1'  
     e( 47 - 47) =     12.71084  eV     1   --> B_2  G_4 D_2'  
     e( 48 - 48) =     19.20470  eV     1   --> B_2  G_4 D_2'  
     e( 49 - 50) =     19.30106  eV     2   --> E    G_5 D_5   
     e( 51 - 51) =     20.39885  eV     1   --> B_1  G_3 D_2   
     e( 52 - 53) =     20.56290  eV     2   --> E    G_5 D_5   
     e( 54 - 54) =     22.12863  eV     1   --> B_2  G_4 D_2'  
     e( 55 - 55) =     24.17412  eV     1   --> A_1  G_1 D_1   
     e( 56 - 56) =     24.17725  eV     1   --> B_2  G_4 D_2'  
     e( 57 - 58) =     24.30287  eV     2   --> E    G_5 D_5   
     e( 59 - 59) =     24.53432  eV     1   --> B_1  G_3 D_2   
     e( 60 - 60) =     27.10797  eV     1   --> A_1  G_1 D_1   

 **************************************************************************

 **************************************************************************

                    xk=(   0.00000,   0.10000,   0.00000  )

     Band symmetry, C_4v (4mm)  point group:

     e(  1 -  1) =   -100.16537  eV     1   --> A_1  G_1 D_1   
     e(  2 -  2) =   -100.16487  eV     1   --> B_2  G_4 D_2'  
     e(  3 -  4) =   -100.16476  eV     2   --> E    G_5 D_5   
     e(  5 -  5) =    -57.68803  eV     1   --> B_2  G_4 D_2'  
     e(  6 -  6) =    -57.67361  eV     1   --> A_1  G_1 D_1   
     e(  7 -  8) =    -57.67323  eV     2   --> E    G_5 D_5   
     e(  9 -  9) =    -57.56764  eV     1   --> A_2  G_2 D_1'  
     e( 10 - 10) =    -57.56752  eV     1   --> B_2  G_4 D_2'  
     e( 11 - 11) =    -57.55982  eV     1   --> B_1  G_3 D_2   
     e( 12 - 13) =    -57.55954  eV     2   --> E    G_5 D_5   
     e( 14 - 14) =    -57.55620  eV     1   --> A_1  G_1 D_1   
     e( 15 - 16) =    -57.55598  eV     2   --> E    G_5 D_5   
     e( 17 - 17) =     -9.04263  eV     1   --> A_1  G_1 D_1   
     e( 18 - 18) =     -8.17407  eV     1   --> B_2  G_4 D_2'  
     e( 19 - 20) =      3.31867  eV     2   --> E    G_5 D_5   
     e( 21 - 21) =      3.31990  eV     1   --> B_2  G_4 D_2'  
     e( 22 - 22) =      5.73221  eV     1   --> A_1  G_1 D_1   
     e( 23 - 23) =      6.07923  eV     1   --> A_1  G_1 D_1   
     e( 24 - 25) =      6.09921  eV     2   --> E    G_5 D_5   
     e( 26 - 26) =      6.27867  eV     1   --> B_1  G_3 D_2   
     e( 27 - 27) =      6.58827  eV     1   --> B_2  G_4 D_2'  
     e( 28 - 28) =      6.60537  eV     1   --> A_1  G_1 D_1   
     e( 29 - 30) =      6.78075  eV     2   --> E    G_5 D_5   
     e( 31 - 31) =      7.36874  eV     1   --> B_1  G_3 D_2   
     e( 32 - 32) =      7.37828  eV     1   --> A_1  G_1 D_1   
     e( 33 - 33) =      7.55416  eV     1   --> B_2  G_4 D_2'  
     e( 34 - 35) =      7.60339  eV     2   --> E    G_5 D_5   
     e( 36 - 36) =      7.63018  eV     1   --> A_2  G_2 D_1'  
     e( 37 - 38) =      7.74142  eV     2   --> E    G_5 D_5   
     e( 39 - 39) =      7.75821  eV     1   --> A_2  G_2 D_1'  
     e( 40 - 41) =      7.82658  eV     2   --> E    G_5 D_5   
     e( 42 - 42) =     10.07841  eV     1   --> B_2  G_4 D_2'  
     e( 43 - 44) =     10.41509  eV     2   --> E    G_5 D_5   
     e( 45 - 45) =     11.41659  eV     1   --> A_1  G_1 D_1   
     e( 46 - 46) =     12.69421  eV     1   --> A_2  G_2 D_1'  
     e( 47 - 47) =     12.89614  eV     1   --> B_2  G_4 D_2'  
     e( 48 - 48) =     19.08690  eV     1   --> B_2  G_4 D_2'  
     e( 49 - 50) =     19.27460  eV     2   --> E    G_5 D_5   
     e( 51 - 51) =     20.10387  eV     1   --> B_1  G_3 D_2   
     e( 52 - 53) =     20.43516  eV     2   --> E    G_5 D_5   
     e( 54 - 54) =     22.35677  eV     1   --> B_2  G_4 D_2'  
     e( 55 - 55) =     24.13776  eV     1   --> A_1  G_1 D_1   
     e( 56 - 56) =     24.20707  eV     1   --> B_2  G_4 D_2'  
     e( 57 - 58) =     24.46833  eV     2   --> E    G_5 D_5   
     e( 59 - 59) =     24.89898  eV     1   --> B_1  G_3 D_2   
     e( 60 - 60) =     26.99783  eV     1   --> A_1  G_1 D_1   

 **************************************************************************

 **************************************************************************

                    xk=(   0.00000,   0.13333,   0.00000  )

[...]
     e( 23 - 23) =      4.76132  eV     1   --> B_2  D_4  S_4  
     e( 24 - 24) =      5.12861  eV     1   --> B_1  D_3  S_3  
     e( 25 - 25) =      6.66440  eV     1   --> A_1  D_1  S_1  
     e( 26 - 26) =      6.71526  eV     1   --> A_1  D_1  S_1  
     e( 27 - 27) =      6.83421  eV     1   --> B_2  D_4  S_4  
     e( 28 - 28) =      6.93039  eV     1   --> A_2  D_2  S_2  
     e( 29 - 29) =      6.98821  eV     1   --> B_1  D_3  S_3  
     e( 30 - 30) =      6.98945  eV     1   --> A_2  D_2  S_2  
     e( 31 - 31) =      7.07914  eV     1   --> B_2  D_4  S_4  
     e( 32 - 32) =      7.14264  eV     1   --> A_1  D_1  S_1  
     e( 33 - 33) =      7.22413  eV     1   --> B_1  D_3  S_3  
     e( 34 - 34) =      7.34139  eV     1   --> A_2  D_2  S_2  
     e( 35 - 35) =      7.50231  eV     1   --> A_2  D_2  S_2  
     e( 36 - 36) =      7.52878  eV     1   --> B_1  D_3  S_3  
     e( 37 - 37) =      7.56946  eV     1   --> A_1  D_1  S_1  
     e( 38 - 38) =      7.65809  eV     1   --> B_2  D_4  S_4  
     e( 39 - 39) =      8.21194  eV     1   --> A_1  D_1  S_1  
     e( 40 - 40) =      8.54663  eV     1   --> A_2  D_2  S_2  
     e( 41 - 41) =      8.68049  eV     1   --> B_1  D_3  S_3  
     e( 42 - 42) =      8.82174  eV     1   --> B_2  D_4  S_4  
     e( 43 - 43) =      9.71286  eV     1   --> B_2  D_4  S_4  
     e( 44 - 44) =      9.90493  eV     1   --> A_1  D_1  S_1  
     e( 45 - 45) =     13.04422  eV     1   --> A_1  D_1  S_1  
     e( 46 - 46) =     13.50359  eV     1   --> B_2  D_4  S_4  
     e( 47 - 47) =     14.86410  eV     1   --> A_2  D_2  S_2  
     e( 48 - 48) =     15.42397  eV     1   --> A_1  D_1  S_1  
     e( 49 - 49) =     18.41825  eV     1   --> A_1  D_1  S_1  
     e( 50 - 50) =     18.44555  eV     1   --> B_2  D_4  S_4  
     e( 51 - 51) =     18.44905  eV     1   --> A_2  D_2  S_2  
     e( 52 - 52) =     19.83309  eV     1   --> B_1  D_3  S_3  
     e( 53 - 53) =     22.84847  eV     1   --> A_1  D_1  S_1  
     e( 54 - 54) =     23.08573  eV     1   --> A_2  D_2  S_2  
     e( 55 - 55) =     23.75586  eV     1   --> B_2  D_4  S_4  
     e( 56 - 56) =     24.00022  eV     1   --> B_2  D_4  S_4  
     e( 57 - 57) =     24.18157  eV     1   --> A_1  D_1  S_1  
     e( 58 - 58) =     25.19901  eV     1   --> B_1  D_3  S_3  
     e( 59 - 59) =     26.89667  eV     1   --> A_1  D_1  S_1  
     e( 60 - 60) =     26.99289  eV     1   --> B_2  D_4  S_4  

 **************************************************************************

 **************************************************************************

                    xk=(   0.40000,   0.40000,   0.00000  )

     Band symmetry, C_2v (mm2)  point group:

     e(  1 -  1) =   -100.16520  eV     1   --> A_1  D_1  S_1  
     e(  2 -  3) =   -100.16505  eV     2   --> A_2  D_2  S_2  
     e(  2 -  3) =   -100.16505  eV     2   --> B_2  D_4  S_4  
     e(  4 -  4) =   -100.16473  eV     1   --> A_1  D_1  S_1  
     e(  5 -  5) =    -57.68190  eV     1   --> B_2  D_4  S_4  
     e(  6 -  6) =    -57.68047  eV     1   --> A_1  D_1  S_1  
     e(  7 -  8) =    -57.67315  eV     2   --> B_1  D_3  S_3  
     e(  7 -  8) =    -57.67315  eV     2   --> B_2  D_4  S_4  
     e(  9 -  9) =    -57.56472  eV     1   --> A_2  D_2  S_2  
     e( 10 - 10) =    -57.56404  eV     1   --> A_1  D_1  S_1  
     e( 11 - 11) =    -57.56299  eV     1   --> B_2  D_4  S_4  
     e( 12 - 12) =    -57.56155  eV     1   --> A_1  D_1  S_1  
     e( 13 - 13) =    -57.55917  eV     1   --> B_1  D_3  S_3  
     e( 14 - 14) =    -57.55841  eV     1   --> B_2  D_4  S_4  
     e( 15 - 15) =    -57.55687  eV     1   --> A_2  D_2  S_2  
     e( 16 - 16) =    -57.55629  eV     1   --> B_1  D_3  S_3  
     e( 17 - 17) =     -8.65441  eV     1   --> A_1  D_1  S_1  
     e( 18 - 18) =     -8.56769  eV     1   --> B_2  D_4  S_4  
     e( 19 - 19) =      3.50199  eV     1   --> A_2  D_2  S_2  
     e( 20 - 20) =      3.66571  eV     1   --> A_1  D_1  S_1  
     e( 21 - 21) =      4.34990  eV     1   --> A_1  D_1  S_1  
     e( 22 - 22) =      4.54724  eV     1   --> B_2  D_4  S_4  
     e( 23 - 23) =      4.84307  eV     1   --> B_2  D_4  S_4  
     e( 24 - 24) =      5.07614  eV     1   --> B_1  D_3  S_3  
     e( 25 - 25) =      6.70871  eV     1   --> A_1  D_1  S_1  
     e( 26 - 26) =      6.76926  eV     1   --> A_1  D_1  S_1  
     e( 27 - 27) =      6.81784  eV     1   --> B_2  D_4  S_4  
     e( 28 - 28) =      6.90877  eV     1   --> A_2  D_2  S_2  
     e( 29 - 29) =      6.99714  eV     1   --> A_2  D_2  S_2  
     e( 30 - 30) =      7.02195  eV     1   --> B_1  D_3  S_3  
     e( 31 - 31) =      7.06393  eV     1   --> B_2  D_4  S_4  
     e( 32 - 32) =      7.13445  eV     1   --> A_1  D_1  S_1  
     e( 33 - 33) =      7.20659  eV     1   --> B_1  D_3  S_3  
     e( 34 - 34) =      7.29565  eV     1   --> A_2  D_2  S_2  
     e( 35 - 35) =      7.48296  eV     1   --> A_2  D_2  S_2  
     e( 36 - 36) =      7.49877  eV     1   --> B_1  D_3  S_3  
     e( 37 - 37) =      7.60270  eV     1   --> A_1  D_1  S_1  
     e( 38 - 38) =      7.65010  eV     1   --> B_2  D_4  S_4  
     e( 39 - 39) =      8.27362  eV     1   --> A_1  D_1  S_1  
     e( 40 - 40) =      8.48228  eV     1   --> A_2  D_2  S_2  
     e( 41 - 41) =      8.75046  eV     1   --> B_1  D_3  S_3  
     e( 42 - 42) =      8.84090  eV     1   --> B_2  D_4  S_4  
     e( 43 - 43) =      9.71954  eV     1   --> B_2  D_4  S_4  
     e( 44 - 44) =      9.84357  eV     1   --> A_1  D_1  S_1  
     e( 45 - 45) =     13.11418  eV     1   --> A_1  D_1  S_1  
     e( 46 - 46) =     13.35976  eV     1   --> B_2  D_4  S_4  
     e( 47 - 47) =     14.94151  eV     1   --> A_2  D_2  S_2  
     e( 48 - 48) =     15.22495  eV     1   --> A_1  D_1  S_1  
     e( 49 - 49) =     18.33235  eV     1   --> A_1  D_1  S_1  
     e( 50 - 50) =     18.34657  eV     1   --> A_2  D_2  S_2  
     e( 51 - 51) =     18.85691  eV     1   --> B_2  D_4  S_4  
     e( 52 - 52) =     19.79267  eV     1   --> B_1  D_3  S_3  
     e( 53 - 53) =     22.62181  eV     1   --> A_1  D_1  S_1  
     e( 54 - 54) =     23.40664  eV     1   --> B_2  D_4  S_4  
     e( 55 - 55) =     23.74090  eV     1   --> A_2  D_2  S_2  
     e( 56 - 56) =     23.75524  eV     1   --> B_2  D_4  S_4  
     e( 57 - 57) =     23.99551  eV     1   --> A_1  D_1  S_1  
     e( 58 - 58) =     25.15739  eV     1   --> B_1  D_3  S_3  
     e( 59 - 59) =     27.27792  eV     1   --> A_1  D_1  S_1  
     e( 60 - 60) =     27.60176  eV     1   --> B_2  D_4  S_4  

 **************************************************************************

 **************************************************************************

                    xk=(   0.43333,   0.43333,   0.00000  )

     Band symmetry, C_2v (mm2)  point group:

     e(  1 -  1) =   -100.16521  eV     1   --> A_1  D_1  S_1  
     e(  2 -  3) =   -100.16509  eV     2   --> A_2  D_2  S_2  
     e(  2 -  3) =   -100.16509  eV     2   --> B_2  D_4  S_4  
     e(  4 -  4) =   -100.16489  eV     1   --> A_1  D_1  S_1  
     e(  5 -  5) =    -57.68153  eV     1   --> B_2  D_4  S_4  
     e(  6 -  6) =    -57.68089  eV     1   --> A_1  D_1  S_1  
     e(  7 -  8) =    -57.67313  eV     2   --> B_1  D_3  S_3  
     e(  7 -  8) =    -57.67313  eV     2   --> B_2  D_4  S_4  
     e(  9 -  9) =    -57.56464  eV     1   --> A_2  D_2  S_2  
     e( 10 - 10) =    -57.56434  eV     1   --> A_1  D_1  S_1  
     e( 11 - 11) =    -57.56249  eV     1   --> B_2  D_4  S_4  
     e( 12 - 12) =    -57.56179  eV     1   --> A_1  D_1  S_1  
     e( 13 - 13) =    -57.55914  eV     1   --> B_1  D_3  S_3  
     e( 14 - 14) =    -57.55875  eV     1   --> B_2  D_4  S_4  
     e( 15 - 15) =    -57.55658  eV     1   --> A_2  D_2  S_2  
     e( 16 - 16) =    -57.55631  eV     1   --> B_1  D_3  S_3  
     e( 17 - 17) =     -8.62932  eV     1   --> A_1  D_1  S_1  
     e( 18 - 18) =     -8.59006  eV     1   --> B_2  D_4  S_4  
     e( 19 - 19) =      3.51504  eV     1   --> A_2  D_2  S_2  
     e( 20 - 20) =      3.59025  eV     1   --> A_1  D_1  S_1  
     e( 21 - 21) =      4.40765  eV     1   --> A_1  D_1  S_1  
     e( 22 - 22) =      4.50185  eV     1   --> B_2  D_4  S_4  
     e( 23 - 23) =      4.93050  eV     1   --> B_2  D_4  S_4  
     e( 24 - 24) =      5.03830  eV     1   --> B_1  D_3  S_3  
     e( 25 - 25) =      6.74615  eV     1   --> A_1  D_1  S_1  
     e( 26 - 26) =      6.80078  eV     1   --> B_2  D_4  S_4  
     e( 27 - 27) =      6.80285  eV     1   --> A_1  D_1  S_1  
     e( 28 - 28) =      6.86191  eV     1   --> A_2  D_2  S_2  
     e( 29 - 29) =      7.04623  eV     1   --> A_2  D_2  S_2  
     e( 30 - 30) =      7.04983  eV     1   --> B_1  D_3  S_3  
     e( 31 - 31) =      7.06514  eV     1   --> B_2  D_4  S_4  
     e( 32 - 32) =      7.12790  eV     1   --> A_1  D_1  S_1  
     e( 33 - 33) =      7.19268  eV     1   --> B_1  D_3  S_3  
     e( 34 - 34) =      7.25060  eV     1   --> A_2  D_2  S_2  
     e( 35 - 35) =      7.46687  eV     1   --> A_2  D_2  S_2  
     e( 36 - 36) =      7.47431  eV     1   --> B_1  D_3  S_3  
     e( 37 - 37) =      7.62095  eV     1   --> A_1  D_1  S_1  
     e( 38 - 38) =      7.64096  eV     1   --> B_2  D_4  S_4  
     e( 39 - 39) =      8.33622  eV     1   --> A_1  D_1  S_1  
     e( 40 - 40) =      8.43752  eV     1   --> A_2  D_2  S_2  
     e( 41 - 41) =      8.80170  eV     1   --> B_1  D_3  S_3  
     e( 42 - 42) =      8.84569  eV     1   --> B_2  D_4  S_4  
     e( 43 - 43) =      9.73075  eV     1   --> B_2  D_4  S_4  
     e( 44 - 44) =      9.79204  eV     1   --> A_1  D_1  S_1  
     e( 45 - 45) =     13.13845  eV     1   --> A_1  D_1  S_1  
     e( 46 - 46) =     13.24045  eV     1   --> B_2  D_4  S_4  
     e( 47 - 47) =     14.99405  eV     1   --> A_2  D_2  S_2  
     e( 48 - 48) =     15.10724  eV     1   --> A_1  D_1  S_1  
     e( 49 - 49) =     18.26782  eV     1   --> A_1  D_1  S_1  
     e( 50 - 50) =     18.27319  eV     1   --> A_2  D_2  S_2  
     e( 51 - 51) =     19.26820  eV     1   --> B_2  D_4  S_4  
     e( 52 - 52) =     19.76439  eV     1   --> B_1  D_3  S_3  
     e( 53 - 53) =     22.44740  eV     1   --> A_1  D_1  S_1  
     e( 54 - 54) =     22.87074  eV     1   --> B_2  D_4  S_4  
     e( 55 - 55) =     23.75588  eV     1   --> B_2  D_4  S_4  
     e( 56 - 56) =     23.86298  eV     1   --> A_1  D_1  S_1  
     e( 57 - 57) =     24.36915  eV     1   --> A_2  D_2  S_2  
     e( 58 - 58) =     25.12042  eV     1   --> B_1  D_3  S_3  
     e( 59 - 59) =     27.69327  eV     1   --> A_1  D_1  S_1  
     e( 60 - 60) =     28.21939  eV     1   --> B_2  D_4  S_4  

 **************************************************************************

 **************************************************************************

                    xk=(   0.46667,   0.46667,   0.00000  )

     Band symmetry, C_2v (mm2)  point group:

     e(  1 -  4) =   -100.16519  eV     4   -->   2 A_1  D_1  S_1  
     e(  1 -  4) =   -100.16519  eV     4   --> A_2  D_2  S_2  
     e(  1 -  4) =   -100.16519  eV     4   --> B_2  D_4  S_4  
     e(  5 -  5) =    -57.68130  eV     1   --> B_2  D_4  S_4  
     e(  6 -  6) =    -57.68114  eV     1   --> A_1  D_1  S_1  
     e(  7 -  8) =    -57.67312  eV     2   --> B_1  D_3  S_3  
     e(  7 -  8) =    -57.67312  eV     2   --> B_2  D_4  S_4  
     e(  9 - 10) =    -57.56460  eV     2   --> A_1  D_1  S_1  
     e(  9 - 10) =    -57.56460  eV     2   --> A_2  D_2  S_2  
     e( 11 - 11) =    -57.56213  eV     1   --> B_2  D_4  S_4  
     e( 12 - 12) =    -57.56194  eV     1   --> A_1  D_1  S_1  
     e( 13 - 13) =    -57.55912  eV     1   --> B_1  D_3  S_3  
     e( 14 - 14) =    -57.55902  eV     1   --> B_2  D_4  S_4  
     e( 15 - 16) =    -57.55640  eV     2   --> A_2  D_2  S_2  
     e( 15 - 16) =    -57.55640  eV     2   --> B_1  D_3  S_3  
     e( 17 - 17) =     -8.61373  eV     1   --> A_1  D_1  S_1  
     e( 18 - 18) =     -8.60381  eV     1   --> B_2  D_4  S_4  
     e( 19 - 19) =      3.52309  eV     1   --> A_2  D_2  S_2  
     e( 20 - 20) =      3.54220  eV     1   --> A_1  D_1  S_1  
     e( 21 - 21) =      4.44714  eV     1   --> A_1  D_1  S_1  
     e( 22 - 22) =      4.47148  eV     1   --> B_2  D_4  S_4  
     e( 23 - 23) =      4.98803  eV     1   --> B_2  D_4  S_4  
     e( 24 - 24) =      5.01545  eV     1   --> B_1  D_3  S_3  
     e( 25 - 25) =      6.77308  eV     1   --> A_1  D_1  S_1  
     e( 26 - 26) =      6.78816  eV     1   --> B_2  D_4  S_4  
     e( 27 - 27) =      6.81840  eV     1   --> A_1  D_1  S_1  
     e( 28 - 28) =      6.83210  eV     1   --> A_2  D_2  S_2  
     e( 29 - 29) =      7.06897  eV     1   --> B_1  D_3  S_3  
     e( 30 - 30) =      7.07230  eV     1   --> B_2  D_4  S_4  
     e( 31 - 31) =      7.09384  eV     1   --> A_2  D_2  S_2  
     e( 32 - 32) =      7.12409  eV     1   --> A_1  D_1  S_1  
     e( 33 - 33) =      7.18331  eV     1   --> B_1  D_3  S_3  
     e( 34 - 34) =      7.20728  eV     1   --> A_2  D_2  S_2  
     e( 35 - 35) =      7.45606  eV     1   --> A_2  D_2  S_2  
     e( 36 - 36) =      7.45801  eV     1   --> B_1  D_3  S_3  
     e( 37 - 37) =      7.62846  eV     1   --> A_1  D_1  S_1  
     e( 38 - 38) =      7.63330  eV     1   --> B_2  D_4  S_4  
     e( 39 - 39) =      8.38424  eV     1   --> A_1  D_1  S_1  
     e( 40 - 40) =      8.41112  eV     1   --> A_2  D_2  S_2  
     e( 41 - 41) =      8.83296  eV     1   --> B_1  D_3  S_3  
     e( 42 - 42) =      8.84455  eV     1   --> B_2  D_4  S_4  
     e( 43 - 43) =      9.74019  eV     1   --> B_2  D_4  S_4  
     e( 44 - 44) =      9.75659  eV     1   --> A_1  D_1  S_1  
     e( 45 - 45) =     13.13831  eV     1   --> A_1  D_1  S_1  
     e( 46 - 46) =     13.16240  eV     1   --> B_2  D_4  S_4  
     e( 47 - 47) =     15.02443  eV     1   --> A_2  D_2  S_2  
     e( 48 - 48) =     15.05051  eV     1   --> A_1  D_1  S_1  
     e( 49 - 49) =     18.22791  eV     1   --> A_1  D_1  S_1  
     e( 50 - 50) =     18.22911  eV     1   --> A_2  D_2  S_2  
     e( 51 - 51) =     19.60374  eV     1   --> B_2  D_4  S_4  
     e( 52 - 52) =     19.74771  eV     1   --> B_1  D_3  S_3  
     e( 53 - 53) =     22.33744  eV     1   --> A_1  D_1  S_1  
     e( 54 - 54) =     22.46231  eV     1   --> B_2  D_4  S_4  
     e( 55 - 55) =     23.75688  eV     1   --> B_2  D_4  S_4  
     e( 56 - 56) =     23.78369  eV     1   --> A_1  D_1  S_1  
     e( 57 - 57) =     24.87619  eV     1   --> A_2  D_2  S_2  
     e( 58 - 58) =     25.09538  eV     1   --> B_1  D_3  S_3  
     e( 59 - 59) =     28.11067  eV     1   --> A_1  D_1  S_1  
     e( 60 - 60) =     28.56478  eV     1   --> A_2  D_2  S_2  

 **************************************************************************

 **************************************************************************

                    xk=(   0.50000,   0.50000,   0.00000  )

     zone border point and non-symmorphic group 
     symmetry decomposition not available

 **************************************************************************

 **************************************************************************

                    xk=(   0.50000,   0.50000,   0.03333  )

     zone border point and non-symmorphic group 
     symmetry decomposition not available

 **************************************************************************

 **************************************************************************

                    xk=(   0.50000,   0.50000,   0.06667  )

     zone border point and non-symmorphic group 
     symmetry decomposition not available

 **************************************************************************

 **************************************************************************

                    xk=(   0.50000,   0.50000,   0.10000  )

     zone border point and non-symmorphic group 
     symmetry decomposition not available

 **************************************************************************

 **************************************************************************

                    xk=(   0.50000,   0.50000,   0.13333  )

     zone border point and non-symmorphic group 
     symmetry decomposition not available

 **************************************************************************

 **************************************************************************

                    xk=(   0.50000,   0.50000,   0.16667  )

     zone border point and non-symmorphic group 
     symmetry decomposition not available

 **************************************************************************

 **************************************************************************

                    xk=(   0.50000,   0.50000,   0.20000  )

     zone border point and non-symmorphic group 
     symmetry decomposition not available

 **************************************************************************

 **************************************************************************

                    xk=(   0.50000,   0.50000,   0.23333  )

     zone border point and non-symmorphic group 
     symmetry decomposition not available

 **************************************************************************

 **************************************************************************

                    xk=(   0.50000,   0.50000,   0.26667  )

     zone border point and non-symmorphic group 
     symmetry decomposition not available

 **************************************************************************

 **************************************************************************

                    xk=(   0.50000,   0.50000,   0.30000  )

     zone border point and non-symmorphic group 
     symmetry decomposition not available

 **************************************************************************

 **************************************************************************

                    xk=(   0.50000,   0.50000,   0.33333  )

     zone border point and non-symmorphic group 
     symmetry decomposition not available

 **************************************************************************

 **************************************************************************

                    xk=(   0.50000,   0.50000,   0.36667  )

     zone border point and non-symmorphic group 
     symmetry decomposition not available

 **************************************************************************

 **************************************************************************

                    xk=(   0.50000,   0.50000,   0.40000  )

     zone border point and non-symmorphic group 
     symmetry decomposition not available

 **************************************************************************

 **************************************************************************

                    xk=(   0.50000,   0.50000,   0.43333  )

     zone border point and non-symmorphic group 
     symmetry decomposition not available

 **************************************************************************

 **************************************************************************

                    xk=(   0.50000,   0.50000,   0.46667  )

     zone border point and non-symmorphic group 
     symmetry decomposition not available

 **************************************************************************

 **************************************************************************

                    xk=(   0.50000,   0.50000,   0.50000  )

     zone border point and non-symmorphic group 
     symmetry decomposition not available

 **************************************************************************

     BANDS        :   1m 4.44s CPU   1m18.97s WALL


   This run was terminated on:  12:32:42   1Oct2025            

=------------------------------------------------------------------------------=
   JOB DONE.
=------------------------------------------------------------------------------=
