Created by /home/xiruan/ATLAS-toolkit/scripts/createLammpsInput.pl on Thu Aug 28 18:24:42 2025

        9536 atoms
        9088 bonds
       16768 angles
       18816 dihedrals

          11 atom types
          12 bond types
          28 angle types
          15 dihedral types

		   0.000000  60.705400 xlo xhi
		   0.000000  60.705400 ylo yhi
		   0.000000  60.705400 zlo zhi

Masses

    1 1.2010E+01 # c3     
    2 1.6000E+01 # os     
    3 1.0080E+00 # h1     
    4 3.2060E+01 # ss     
    5 1.9000E+01 # f      
    6 1.0080E+00 # h2     
    7 3.2060E+01 # sy     
    8 1.4010E+01 # ne     
    9 3.2060E+01 # s6     
   10 1.6000E+01 # o      
   11 2.2990E+01 # Na+    

Pair Coeffs

    1    0.10780    3.39771 # c3 c3 
    2    0.07260    3.15610 # os os 
    3    0.02080    2.42200 # h1 h1 
    4    0.28240    3.53241 # ss ss 
    5    0.08320    3.03422 # f f 
    6    0.02080    2.24382 # h2 h2 
    7    0.28240    3.53241 # sy sy 
    8    0.09410    3.38417 # ne ne 
    9    0.28240    3.53241 # s6 s6 
   10    0.14630    3.04812 # o o 
   11    0.16844    2.18448 # Na+ Na+ 

Bond Coeffs

    1    284.8    1.432 # c3 os 
    2    375.9    1.097 # c3 h1 
    3    232.5    1.538 # c3 c3 
    4      183    1.839 # c3 ss 
    5    352.6     1.35 # c3 f 
    6    377.3    1.096 # c3 h2 
    7    199.4    1.809 # c3 sy 
    8      326    1.672 # ne sy 
    9    653.2    1.466 # o sy 
   10    412.2    1.598 # ne s6 
   11    200.1    1.808 # c3 s6 
   12      683    1.453 # o s6 

Angle Coeffs

    1     62.4   109.78 # h1 c3 os 
    2     38.8   108.46 # h1 c3 h1 
    3     66.3   112.48 # c3 os c3 
    4     85.3   107.97 # c3 c3 os 
    5     46.9   109.56 # c3 c3 h1 
    6     63.2   110.27 # c3 c3 ss 
    7     42.5   108.76 # h1 c3 ss 
    8     71.1    99.24 # c3 ss c3 
    9     81.9   111.75 # f c3 ss 
   10    121.6   107.36 # f c3 f 
   11     87.9   109.24 # c3 c3 f 
   12     46.7   110.22 # c3 c3 h2 
   13     66.6   108.79 # f c3 h2 
   14    114.4   110.58 # f c3 os 
   15     62.4   109.58 # h2 c3 os 
   16     64.1   109.92 # c3 c3 sy 
   17     83.9   109.68 # f c3 sy 
   18     92.4   102.19 # c3 sy ne 
   19     67.7   119.63 # s6 ne sy 
   20     91.3   108.19 # c3 s6 ne 
   21     83.9   109.68 # f c3 s6 
   22    124.1    119.1 # ne s6 o 
   23     93.7   108.61 # c3 s6 o 
   24    128.2   120.05 # o s6 o 
   25     93.8   107.85 # c3 sy o 
   26    123.2   109.65 # ne sy o 
   27    126.4   121.41 # o sy o 
   28     64.9   111.51 # c3 c3 c3 

Dihedral Coeffs

    1        1 0.155556        3        0 # X c3 c3 X 
    2        1 0.383333        3        0 # X c3 os X 
    3        1 0.144444        3        0 # X c3 s6 X 
    4        1 0.333333        3        0 # X c3 ss X 
    5        1 0.144444        3        0 # X c3 sy X 
    6        2      0.5        3      180      6.8        1      180 # X ne sy X 
    7        5     0.24        3        0     0.16        2        0     0.91        3        0        1        2        0        0        1        0 # c3 os c3 c3 
    8        1    0.337        3        0 # c3 os c3 h1 
    9        1    0.167        3        0 # c3 ss c3 c3 
   10        1     0.22        3        0 # c3 ss c3 h1 
   11        2        1        3        0     0.64        1      180 # f c3 c3 f 
   12        2        0        3        0     0.25        1        0 # h1 c3 c3 os 
   13        3        0        3        0        0        2      180     0.17        1      180 # os c3 c3 os 
   14        1  6.66667        2      180 # sy ne s6 c3 
   15        1  6.66667        2      180 # sy ne s6 o 

Atoms

       1        1        1  0.11882500   10.08435    5.87313   -1.84326    0    0    0
       2        1        2 -0.42547500    8.75292    6.18802   -1.45420    0    0    0
       3        1        3  0.03382500   10.05144    5.39132   -2.82347    0    0    0
       4        1        3  0.03382500   10.53538    5.17820   -1.12791    0    0    0
       5        1        3  0.03382500   10.68872    6.78138   -1.91987    0    0    0
       6        1        1  0.12552500    8.72330    6.85554   -0.19189    0    0    0
       7        1        1  0.12552500    7.27702    7.14311    0.19346    0    0    0
       8        1        3  0.03982500    9.28631    7.79449   -0.25231    0    0    0
       9        1        3  0.03982500    9.19443    6.23054    0.57610    0    0    0
      10        1        2 -0.42547500    7.24743    7.82438    1.44753    0    0    0
      11        1        3  0.03982500    6.71745    6.20264    0.26397    0    0    0
      12        1        3  0.03982500    6.80084    7.75731   -0.58018    0    0    0
      13        1        1  0.11882500    5.91535    8.11697    1.84792    0    0    0
      14        1        3  0.03382500    5.95087    8.64148    2.80631    0    0    0
      15        1        3  0.03382500    5.34179    7.19380    1.97557    0    0    0
      16        1        3  0.03382500    5.42701    8.76601    1.11362    0    0    0
      17        2        1  0.11882500    4.87831    7.50259    8.28721    0    0    0
      18        2        2 -0.42547500    4.46029    6.85806    7.09010    0    0    0
      19        2        3  0.03382500    5.84984    7.09450    8.57637    0    0    0
      20        2        3  0.03382500    4.16411    7.30772    9.09346    0    0    0
      21        2        3  0.03382500    4.98425    8.57947    8.12860    0    0    0
      22        2        1  0.12552500    3.20804    7.37047    6.63271    0    0    0
      23        2        1  0.12552500    2.79038    6.62879    5.36844    0    0    0
      24        2        3  0.03982500    3.29721    8.44299    6.42297    0    0    0
      25        2        3  0.03982500    2.44281    7.24252    7.40760    0    0    0
      26        2        2 -0.42547500    1.54658    7.15120    4.90182    0    0    0
      27        2        3  0.03982500    2.69118    5.55772    5.58185    0    0    0
      28        2        3  0.03982500    3.56096    6.74517    4.59696    0    0    0
      29        2        1  0.11882500    1.11688    6.48998    3.71923    0    0    0
      30        2        3  0.03382500    0.16787    6.93094    3.40326    0    0    0
      31        2        3  0.03382500    0.96047    5.42406    3.91116    0    0    0
      32        2        3  0.03382500    1.84836    6.62526    2.91576    0    0    0
      33        3        4 -0.10539700    0.57110    4.37767    0.66620    0    0    0
      34        3        1 -0.13809700    1.32108    4.63126   -0.99258    0    0    0
      35        3        5 -0.06639800    2.63075    4.19828   -1.01114    0    0    0
      36        3        5 -0.06639800    1.26042    5.97620   -1.30305    0    0    0
      37        3        1  0.17619600    0.57443    3.87251   -2.08833    0    0    0
      38        3        5 -0.14149600   -0.75067    4.28029   -2.09406    0    0    0
      39        3        6  0.16419600    0.64278    2.78254   -1.87545    0    0    0
      40        3        2 -0.04689900    1.20399    4.20932   -3.31128    0    0    0
      41        3        1  0.20179500    0.70365    3.47699   -4.41084    0    0    0
      42        3        5 -0.12319700   -0.64520    3.73433   -4.60437    0    0    0
      43        3        5 -0.12319700    0.90784    2.11710   -4.22620    0    0    0
      44        3        1  0.04799900    1.47905    3.93909   -5.65144    0    0    0
      45        3        5 -0.10699700    2.82507    3.67071   -5.47841    0    0    0
      46        3        5 -0.10699700    1.31933    5.30588   -5.80876    0    0    0
      47        3        7  1.08897300    0.91543    3.12042   -7.18034    0    0    0
      48        3        8 -0.61098500    2.13823    2.97744   -8.46499    0    0    0
      49        3        9  0.97637600    1.43041    3.22823  -10.07148    0    0    0
      50        3        1  0.32349200    0.98759    4.92337  -10.56514    0    0    0
      51        3        5 -0.15109600    1.36392    5.13782  -11.87774    0    0    0
      52        3        5 -0.15109600   -0.37608    5.10410  -10.44345    0    0    0
      53        3        5 -0.15109600    1.64456    5.82477   -9.74996    0    0    0
      54        3       10 -0.52828700    2.47054    2.61817  -11.02172    0    0    0
      55        3       10 -0.52828700    0.28414    2.21107  -10.18651    0    0    0
      56        3       10 -0.51948700   -0.30378    3.82120   -7.80268    0    0    0
      57        3       10 -0.51948700    0.40261    1.68842   -6.96775    0    0    0
      58        3        4 -0.10539700    4.66441    5.73695    0.42955    0    0    0
      59        3        1 -0.13809700    4.83787    6.82180   -1.03953    0    0    0
      60        3        5 -0.06639800    5.54150    7.95980   -0.68830    0    0    0
      61        3        5 -0.06639800    3.60358    7.18223   -1.54581    0    0    0
      62        3        1  0.17619600    5.59597    6.05691   -2.12775    0    0    0
      63        3        5 -0.14149600    4.88576    4.90099   -2.42486    0    0    0
      64        3        6  0.16419600    6.59773    5.78928   -1.72186    0    0    0
      65        3        2 -0.04689900    5.72806    6.87935   -3.27358    0    0    0
      66        3        1  0.20179500    6.33802    6.17923   -4.34671    0    0    0
      67        3        5 -0.12319700    5.47127    5.21658   -4.84523    0    0    0
      68        3        5 -0.12319700    7.52770    5.58452   -3.94692    0    0    0
      69        3        1  0.04799900    6.64735    7.17447   -5.46852    0    0    0
      70        3        5 -0.10699700    7.50625    8.15047   -4.99508    0    0    0
      71        3        5 -0.10699700    5.47581    7.78045   -5.88576    0    0    0
      72        3        7  1.08897300    7.43212    6.35281   -6.90302    0    0    0
      73        3        8 -0.61098500    9.13298    6.76184   -7.20879    0    0    0
      74        3        9  0.97637600    9.65953    6.12012   -8.77636    0    0    0
      75        3        1  0.32349200    9.01697    6.88080  -10.29924    0    0    0
      76        3        5 -0.15109600   10.02148    6.94572  -11.24515    0    0    0
      77        3        5 -0.15109600    7.97075    6.12536  -10.79292    0    0    0
      78        3        5 -0.15109600    8.57070    8.15848  -10.02236    0    0    0
      79        3       10 -0.52828700   11.18971    6.22557   -8.70905    0    0    0
      80        3       10 -0.52828700    9.46471    4.59813   -8.70081    0    0    0
      81        3       10 -0.51948700    6.69163    6.64997   -8.21565    0    0    0
      82        3       10 -0.51948700    7.38734    4.81766   -6.83847    0    0    0
      83        3        4 -0.10539700    4.38358    6.84676    4.21575    0    0    0
      84        3        1 -0.13809700    5.06941    6.09448    5.74491    0    0    0
      85        3        5 -0.06639800    6.21306    6.79813    6.07456    0    0    0
      86        3        5 -0.06639800    5.43340    4.77499    5.53327    0    0    0
      87        3        1  0.17619600    4.06713    6.19601    6.89731    0    0    0
      88        3        5 -0.14149600    2.94638    5.43964    6.61332    0    0    0
      89        3        6  0.16419600    3.78087    7.27171    6.97784    0    0    0
      90        3        2 -0.04689900    4.66306    5.71194    8.08837    0    0    0
      91        3        1  0.20179500    4.05281    6.29618    9.22773    0    0    0
      92        3        5 -0.12319700    2.67391    6.12853    9.19316    0    0    0
      93        3        5 -0.12319700    4.36377    7.64801    9.28591    0    0    0
      94        3        1  0.04799900    4.59231    5.61467   10.49006    0    0    0
      95        3        5 -0.10699700    5.96526    5.77307   10.54433    0    0    0
      96        3        5 -0.10699700    4.30164    4.26195   10.44981    0    0    0
      97        3        7  1.08897300    3.85809    6.33462   12.00546    0    0    0
      98        3        8 -0.61098500    4.96678    6.92369   13.25813    0    0    0
      99        3        9  0.97637600    5.27102    5.65554   14.45716    0    0    0
     100        3        1  0.32349200    5.76825    3.99673   13.90517    0    0    0
     101        3        5 -0.15109600    6.45495    3.36105   14.92107    0    0    0
     102        3        5 -0.15109600    4.64841    3.25722   13.57744    0    0    0
     103        3        5 -0.15109600    6.59082    4.10301   12.80071    0    0    0
     104        3       10 -0.52828700    6.32758    6.27604   15.38194    0    0    0
     105        3       10 -0.52828700    4.03599    5.65900   15.37257    0    0    0
     106        3       10 -0.51948700    2.85381    5.41032   12.71299    0    0    0
     107        3       10 -0.51948700    2.97417    7.55686   11.71167    0    0    0
     108        3        4 -0.10539700    0.77638    5.77225    4.58132    0    0    0
     109        3        1 -0.13809700   -0.84613    5.08530    4.08968    0    0    0
     110        3        5 -0.06639800   -0.66945    3.85116    3.49173    0    0    0
     111        3        5 -0.06639800   -1.50753    5.93724    3.22310    0    0    0
     112        3        1  0.17619600   -1.69291    4.91396    5.35414    0    0    0
     113        3        5 -0.14149600   -1.94809    6.17804    5.87729    0    0    0
     114        3        6  0.16419600   -2.66563    4.44960    5.08460    0    0    0
     115        3        2 -0.04689900   -1.00126    4.05284    6.25442    0    0    0
     116        3        1  0.20179500   -1.16286    4.41389    7.61384    0    0    0
     117        3        5 -0.12319700   -2.50920    4.47814    7.94610    0    0    0
     118        3        5 -0.12319700   -0.54709    5.63354    7.86191    0    0    0
     119        3        1  0.04799900   -0.48445    3.34931    8.48493    0    0    0
     120        3        5 -0.10699700    0.85994    3.28233    8.16490    0    0    0
     121        3        5 -0.10699700   -1.06219    2.11599    8.24120    0    0    0
     122        3        7  1.08897300   -0.64061    3.72630   10.26641    0    0    0
     123        3        8 -0.61098500    0.59008    3.00259   11.32286    0    0    0
     124        3        9  0.97637600    0.06639    3.04234   13.01768    0    0    0
     125        3        1  0.32349200   -1.19908    1.85474   13.56180    0    0    0
     126        3        5 -0.15109600   -0.85518    1.34066   14.79720    0    0    0
     127        3        5 -0.15109600   -2.42406    2.48598   13.65180    0    0    0
     128        3        5 -0.15109600   -1.28186    0.82197   12.64769    0    0    0
     129        3       10 -0.52828700    1.37363    2.86660   13.80399    0    0    0
     130        3       10 -0.52828700   -0.27185    4.51004   13.32589    0    0    0
     131        3       10 -0.51948700   -1.99897    3.29075   10.83943    0    0    0
     132        3       10 -0.51948700   -0.60776    5.22882   10.58453    0    0    0
     133        3        1  0.10869700    2.05618    4.30104    1.77974    0    0    0
     134        3        1  0.10869700    1.40988    6.46876    3.00273    0    0    0
     135        3        1  0.10869700    3.21345    6.54176    1.22874    0    0    0
     136        3        1 -0.21369500    2.58510    5.66108    2.35650    0    0    0
     137        3        1  0.10869700    3.68238    5.33899    3.43141    0    0    0
     138        3        3  0.07529800    1.73299    3.66132    2.62625    0    0    0
     139        3        3  0.07529800    2.86710    3.70936    1.30882    0    0    0
     140        3        3  0.07529800    1.75957    7.48698    3.27391    0    0    0
     141        3        3  0.07529800    0.59421    6.65083    2.27566    0    0    0
     142        3        3  0.07529800    3.23880    4.69464    4.21572    0    0    0
     143        3        3  0.07529800    4.51472    4.76252    2.97779    0    0    0
     144        3        3  0.07529800    3.56088    7.50907    1.64715    0    0    0
     145        3        3  0.07529800    2.42952    6.77143    0.49419    0    0    0
     146        4       11  1.00000000   11.25578   17.45135   15.26416    0    0    0
     147        5       11  1.00000000   -9.26911   -2.71606    8.54340    0    0    0
     148        6       11  1.00000000   -1.38350   13.73113   10.84576    0    0    0
     149        7       11  1.00000000   -1.52347   12.45251    5.34043    0    0    0
     150        8        1  0.11882500   10.08435    5.87313   13.33309    0    0    0
     151        8        2 -0.42547500    8.75292    6.18802   13.72215    0    0    0
     152        8        3  0.03382500   10.05144    5.39132   12.35288    0    0    0
     153        8        3  0.03382500   10.53538    5.17820   14.04844    0    0    0
     154        8        3  0.03382500   10.68872    6.78138   13.25648    0    0    0
     155        8        1  0.12552500    8.72330    6.85554   14.98446    0    0    0
     156        8        1  0.12552500    7.27702    7.14311   15.36981    0    0    0
     157        8        3  0.03982500    9.28631    7.79449   14.92404    0    0    0
     158        8        3  0.03982500    9.19443    6.23054   15.75245    0    0    0
     159        8        2 -0.42547500    7.24743    7.82438   16.62388    0    0    0
     160        8        3  0.03982500    6.71745    6.20264   15.44032    0    0    0
     161        8        3  0.03982500    6.80084    7.75731   14.59617    0    0    0
     162        8        1  0.11882500    5.91535    8.11697   17.02427    0    0    0
     163        8        3  0.03382500    5.95087    8.64148   17.98266    0    0    0
     164        8        3  0.03382500    5.34179    7.19380   17.15192    0    0    0
     165        8        3  0.03382500    5.42701    8.76601   16.28997    0    0    0
     166        9        1  0.11882500    4.87831    7.50259   23.46356    0    0    0
     167        9        2 -0.42547500    4.46029    6.85806   22.26645    0    0    0
     168        9        3  0.03382500    5.84984    7.09450   23.75272    0    0    0
     169        9        3  0.03382500    4.16411    7.30772   24.26981    0    0    0
     170        9        3  0.03382500    4.98425    8.57947   23.30495    0    0    0
     171        9        1  0.12552500    3.20804    7.37047   21.80906    0    0    0
     172        9        1  0.12552500    2.79038    6.62879   20.54479    0    0    0
     173        9        3  0.03982500    3.29721    8.44299   21.59932    0    0    0
     174        9        3  0.03982500    2.44281    7.24252   22.58395    0    0    0
     175        9        2 -0.42547500    1.54658    7.15120   20.07817    0    0    0
     176        9        3  0.03982500    2.69118    5.55772   20.75820    0    0    0
     177        9        3  0.03982500    3.56096    6.74517   19.77331    0    0    0
     178        9        1  0.11882500    1.11688    6.48998   18.89558    0    0    0
     179        9        3  0.03382500    0.16787    6.93094   18.57961    0    0    0
     180        9        3  0.03382500    0.96047    5.42406   19.08751    0    0    0
     181        9        3  0.03382500    1.84836    6.62526   18.09211    0    0    0
     182       10        4 -0.10539700    0.57110    4.37767   15.84255    0    0    0
     183       10        1 -0.13809700    1.32108    4.63126   14.18377    0    0    0
     184       10        5 -0.06639800    2.63075    4.19828   14.16521    0    0    0
     185       10        5 -0.06639800    1.26042    5.97620   13.87330    0    0    0
     186       10        1  0.17619600    0.57443    3.87251   13.08802    0    0    0
     187       10        5 -0.14149600   -0.75067    4.28029   13.08229    0    0    0
     188       10        6  0.16419600    0.64278    2.78254   13.30090    0    0    0
     189       10        2 -0.04689900    1.20399    4.20932   11.86507    0    0    0
     190       10        1  0.20179500    0.70365    3.47699   10.76551    0    0    0
     191       10        5 -0.12319700   -0.64520    3.73433   10.57198    0    0    0
     192       10        5 -0.12319700    0.90784    2.11710   10.95015    0    0    0
     193       10        1  0.04799900    1.47905    3.93909    9.52491    0    0    0
     194       10        5 -0.10699700    2.82507    3.67071    9.69794    0    0    0
     195       10        5 -0.10699700    1.31933    5.30588    9.36759    0    0    0
     196       10        7  1.08897300    0.91543    3.12042    7.99601    0    0    0
     197       10        8 -0.61098500    2.13823    2.97744    6.71136    0    0    0
     198       10        9  0.97637600    1.43041    3.22823    5.10487    0    0    0
     199       10        1  0.32349200    0.98759    4.92337    4.61121    0    0    0
     200       10        5 -0.15109600    1.36392    5.13782    3.29861    0    0    0
     201       10        5 -0.15109600   -0.37608    5.10410    4.73290    0    0    0
     202       10        5 -0.15109600    1.64456    5.82477    5.42639    0    0    0
     203       10       10 -0.52828700    2.47054    2.61817    4.15463    0    0    0
     204       10       10 -0.52828700    0.28414    2.21107    4.98984    0    0    0
     205       10       10 -0.51948700   -0.30378    3.82120    7.37367    0    0    0
     206       10       10 -0.51948700    0.40261    1.68842    8.20860    0    0    0
     207       10        4 -0.10539700    4.66441    5.73695   15.60590    0    0    0
     208       10        1 -0.13809700    4.83787    6.82180   14.13682    0    0    0
     209       10        5 -0.06639800    5.54150    7.95980   14.48805    0    0    0
     210       10        5 -0.06639800    3.60358    7.18223   13.63054    0    0    0
     211       10        1  0.17619600    5.59597    6.05691   13.04860    0    0    0
     212       10        5 -0.14149600    4.88576    4.90099   12.75149    0    0    0
     213       10        6  0.16419600    6.59773    5.78928   13.45449    0    0    0
     214       10        2 -0.04689900    5.72806    6.87935   11.90277    0    0    0
     215       10        1  0.20179500    6.33802    6.17923   10.82964    0    0    0
     216       10        5 -0.12319700    5.47127    5.21658   10.33112    0    0    0
     217       10        5 -0.12319700    7.52770    5.58452   11.22943    0    0    0
     218       10        1  0.04799900    6.64735    7.17447    9.70783    0    0    0
     219       10        5 -0.10699700    7.50625    8.15047   10.18127    0    0    0
     220       10        5 -0.10699700    5.47581    7.78045    9.29059    0    0    0
     221       10        7  1.08897300    7.43212    6.35281    8.27333    0    0    0
     222       10        8 -0.61098500    9.13298    6.76184    7.96756    0    0    0
     223       10        9  0.97637600    9.65953    6.12012    6.39999    0    0    0
     224       10        1  0.32349200    9.01697    6.88080    4.87711    0    0    0
     225       10        5 -0.15109600   10.02148    6.94572    3.93120    0    0    0
     226       10        5 -0.15109600    7.97075    6.12536    4.38343    0    0    0
     227       10        5 -0.15109600    8.57070    8.15848    5.15399    0    0    0
     228       10       10 -0.52828700   11.18971    6.22557    6.46730    0    0    0
     229       10       10 -0.52828700    9.46471    4.59813    6.47554    0    0    0
     230       10       10 -0.51948700    6.69163    6.64997    6.96070    0    0    0
     231       10       10 -0.51948700    7.38734    4.81766    8.33788    0    0    0
     232       10        4 -0.10539700    4.38358    6.84676   19.39210    0    0    0
     233       10        1 -0.13809700    5.06941    6.09448   20.92126    0    0    0
     234       10        5 -0.06639800    6.21306    6.79813   21.25091    0    0    0
     235       10        5 -0.06639800    5.43340    4.77499   20.70962    0    0    0
     236       10        1  0.17619600    4.06713    6.19601   22.07366    0    0    0
     237       10        5 -0.14149600    2.94638    5.43964   21.78967    0    0    0
     238       10        6  0.16419600    3.78087    7.27171   22.15419    0    0    0
     239       10        2 -0.04689900    4.66306    5.71194   23.26472    0    0    0
     240       10        1  0.20179500    4.05281    6.29618   24.40408    0    0    0
     241       10        5 -0.12319700    2.67391    6.12853   24.36951    0    0    0
     242       10        5 -0.12319700    4.36377    7.64801   24.46226    0    0    0
     243       10        1  0.04799900    4.59231    5.61467   25.66641    0    0    0
     244       10        5 -0.10699700    5.96526    5.77307   25.72068    0    0    0
     245       10        5 -0.10699700    4.30164    4.26195   25.62616    0    0    0
     246       10        7  1.08897300    3.85809    6.33462   27.18181    0    0    0
     247       10        8 -0.61098500    4.96678    6.92369   28.43448    0    0    0
     248       10        9  0.97637600    5.27102    5.65554   29.63351    0    0    0
     249       10        1  0.32349200    5.76825    3.99673   29.08152    0    0    0
     250       10        5 -0.15109600    6.45495    3.36105   30.09742    0    0    0
     251       10        5 -0.15109600    4.64841    3.25722   28.75379    0    0    0
     252       10        5 -0.15109600    6.59082    4.10301   27.97706    0    0    0
     253       10       10 -0.52828700    6.32758    6.27604   30.55829    0    0    0
     254       10       10 -0.52828700    4.03599    5.65900   30.54892    0    0    0
     255       10       10 -0.51948700    2.85381    5.41032   27.88934    0    0    0
     256       10       10 -0.51948700    2.97417    7.55686   26.88802    0    0    0
     257       10        4 -0.10539700    0.77638    5.77225   19.75767    0    0    0
     258       10        1 -0.13809700   -0.84613    5.08530   19.26603    0    0    0
     259       10        5 -0.06639800   -0.66945    3.85116   18.66808    0    0    0
     260       10        5 -0.06639800   -1.50753    5.93724   18.39945    0    0    0
     261       10        1  0.17619600   -1.69291    4.91396   20.53049    0    0    0
     262       10        5 -0.14149600   -1.94809    6.17804   21.05364    0    0    0
     263       10        6  0.16419600   -2.66563    4.44960   20.26095    0    0    0
     264       10        2 -0.04689900   -1.00126    4.05284   21.43077    0    0    0
     265       10        1  0.20179500   -1.16286    4.41389   22.79019    0    0    0
     266       10        5 -0.12319700   -2.50920    4.47814   23.12245    0    0    0
     267       10        5 -0.12319700   -0.54709    5.63354   23.03826    0    0    0
     268       10        1  0.04799900   -0.48445    3.34931   23.66128    0    0    0
     269       10        5 -0.10699700    0.85994    3.28233   23.34125    0    0    0
     270       10        5 -0.10699700   -1.06219    2.11599   23.41755    0    0    0
     271       10        7  1.08897300   -0.64061    3.72630   25.44276    0    0    0
     272       10        8 -0.61098500    0.59008    3.00259   26.49921    0    0    0
     273       10        9  0.97637600    0.06639    3.04234   28.19403    0    0    0
     274       10        1  0.32349200   -1.19908    1.85474   28.73815    0    0    0
     275       10        5 -0.15109600   -0.85518    1.34066   29.97355    0    0    0
     276       10        5 -0.15109600   -2.42406    2.48598   28.82815    0    0    0
     277       10        5 -0.15109600   -1.28186    0.82197   27.82404    0    0    0
     278       10       10 -0.52828700    1.37363    2.86660   28.98034    0    0    0
     279       10       10 -0.52828700   -0.27185    4.51004   28.50224    0    0    0
     280       10       10 -0.51948700   -1.99897    3.29075   26.01578    0    0    0
     281       10       10 -0.51948700   -0.60776    5.22882   25.76088    0    0    0
     282       10        1  0.10869700    2.05618    4.30104   16.95609    0    0    0
     283       10        1  0.10869700    1.40988    6.46876   18.17908    0    0    0
     284       10        1  0.10869700    3.21345    6.54176   16.40509    0    0    0
     285       10        1 -0.21369500    2.58510    5.66108   17.53285    0    0    0
     286       10        1  0.10869700    3.68238    5.33899   18.60776    0    0    0
     287       10        3  0.07529800    1.73299    3.66132   17.80260    0    0    0
     288       10        3  0.07529800    2.86710    3.70936   16.48517    0    0    0
     289       10        3  0.07529800    1.75957    7.48698   18.45026    0    0    0
     290       10        3  0.07529800    0.59421    6.65083   17.45201    0    0    0
     291       10        3  0.07529800    3.23880    4.69464   19.39207    0    0    0
     292       10        3  0.07529800    4.51472    4.76252   18.15414    0    0    0
     293       10        3  0.07529800    3.56088    7.50907   16.82350    0    0    0
     294       10        3  0.07529800    2.42952    6.77143   15.67054    0    0    0
     295       11       11  1.00000000   11.25578   17.45135   30.44051    0    0    0
     296       12       11  1.00000000   -9.26911   -2.71606   23.71975    0    0    0
     297       13       11  1.00000000   -1.38350   13.73113   26.02211    0    0    0
     298       14       11  1.00000000   -1.52347   12.45251   20.51678    0    0    0
     299       15        1  0.11882500   10.08435    5.87313   28.50944    0    0    0
     300       15        2 -0.42547500    8.75292    6.18802   28.89850    0    0    0
     301       15        3  0.03382500   10.05144    5.39132   27.52923    0    0    0
     302       15        3  0.03382500   10.53538    5.17820   29.22479    0    0    0
     303       15        3  0.03382500   10.68872    6.78138   28.43283    0    0    0