Created by /home/xiruan/ATLAS-toolkit/scripts/createLammpsInput.pl on Thu Aug 28 18:22:11 2025

       11584 atoms
       11008 bonds
       20096 angles
       21504 dihedrals

          11 atom types
          12 bond types
          28 angle types
          15 dihedral types

		   0.000000  62.390600 xlo xhi
		   0.000000  62.390600 ylo yhi
		   0.000000  62.390600 zlo zhi

Masses

    1 1.2010E+01 # c3     
    2 1.6000E+01 # os     
    3 1.0080E+00 # h1     
    4 3.2060E+01 # ss     
    5 1.9000E+01 # f      
    6 1.0080E+00 # h2     
    7 3.2060E+01 # sy     
    8 1.4010E+01 # ne     
    9 3.2060E+01 # s6     
   10 1.6000E+01 # o      
   11 2.2990E+01 # Na+    

Pair Coeffs

    1    0.10780    3.39771 # c3 c3 
    2    0.07260    3.15610 # os os 
    3    0.02080    2.42200 # h1 h1 
    4    0.28240    3.53241 # ss ss 
    5    0.08320    3.03422 # f f 
    6    0.02080    2.24382 # h2 h2 
    7    0.28240    3.53241 # sy sy 
    8    0.09410    3.38417 # ne ne 
    9    0.28240    3.53241 # s6 s6 
   10    0.14630    3.04812 # o o 
   11    0.16844    2.18448 # Na+ Na+ 

Bond Coeffs

    1    284.8    1.432 # c3 os 
    2    375.9    1.097 # c3 h1 
    3    232.5    1.538 # c3 c3 
    4      183    1.839 # c3 ss 
    5    352.6     1.35 # c3 f 
    6    377.3    1.096 # c3 h2 
    7    199.4    1.809 # c3 sy 
    8      326    1.672 # ne sy 
    9    653.2    1.466 # o sy 
   10    412.2    1.598 # ne s6 
   11    200.1    1.808 # c3 s6 
   12      683    1.453 # o s6 

Angle Coeffs

    1     62.4   109.78 # h1 c3 os 
    2     38.8   108.46 # h1 c3 h1 
    3     66.3   112.48 # c3 os c3 
    4     85.3   107.97 # c3 c3 os 
    5     46.9   109.56 # c3 c3 h1 
    6     63.2   110.27 # c3 c3 ss 
    7     42.5   108.76 # h1 c3 ss 
    8     71.1    99.24 # c3 ss c3 
    9     81.9   111.75 # f c3 ss 
   10    121.6   107.36 # f c3 f 
   11     87.9   109.24 # c3 c3 f 
   12     46.7   110.22 # c3 c3 h2 
   13     66.6   108.79 # f c3 h2 
   14    114.4   110.58 # f c3 os 
   15     62.4   109.58 # h2 c3 os 
   16     64.1   109.92 # c3 c3 sy 
   17     83.9   109.68 # f c3 sy 
   18     92.4   102.19 # c3 sy ne 
   19     67.7   119.63 # s6 ne sy 
   20     91.3   108.19 # c3 s6 ne 
   21     83.9   109.68 # f c3 s6 
   22    124.1    119.1 # ne s6 o 
   23     93.7   108.61 # c3 s6 o 
   24    128.2   120.05 # o s6 o 
   25     93.8   107.85 # c3 sy o 
   26    123.2   109.65 # ne sy o 
   27    126.4   121.41 # o sy o 
   28     64.9   111.51 # c3 c3 c3 

Dihedral Coeffs

    1        1 0.155556        3        0 # X c3 c3 X 
    2        1 0.383333        3        0 # X c3 os X 
    3        1 0.144444        3        0 # X c3 s6 X 
    4        1 0.333333        3        0 # X c3 ss X 
    5        1 0.144444        3        0 # X c3 sy X 
    6        2      0.5        3      180      6.8        1      180 # X ne sy X 
    7        5     0.24        3        0     0.16        2        0     0.91        3        0        1        2        0        0        1        0 # c3 os c3 c3 
    8        1    0.337        3        0 # c3 os c3 h1 
    9        1    0.167        3        0 # c3 ss c3 c3 
   10        1     0.22        3        0 # c3 ss c3 h1 
   11        2        1        3        0     0.64        1      180 # f c3 c3 f 
   12        2        0        3        0     0.25        1        0 # h1 c3 c3 os 
   13        3        0        3        0        0        2      180     0.17        1      180 # os c3 c3 os 
   14        1  6.66667        2      180 # sy ne s6 c3 
   15        1  6.66667        2      180 # sy ne s6 o 

Atoms

       1        1        1  0.11882500    3.29993   -0.12551   -0.00101    0    0    0
       2        1        2 -0.42547500    3.59383    0.35968    1.30338    0    0    0
       3        1        3  0.03382500    3.10020   -1.19762    0.06770    0    0    0
       4        1        3  0.03382500    4.15587    0.02800   -0.66575    0    0    0
       5        1        3  0.03382500    2.41336    0.37036   -0.40620    0    0    0
       6        1        1  0.12552500    3.83129    1.76802    1.29391    0    0    0
       7        1        1  0.12552500    4.17061    2.23242    2.70532    0    0    0
       8        1        3  0.03982500    2.94012    2.29489    0.93268    0    0    0
       9        1        3  0.03982500    4.65969    2.00599    0.61602    0    0    0
      10        1        2 -0.42547500    4.39256    3.64252    2.69951    0    0    0
      11        1        3  0.03982500    5.06812    1.71269    3.06158    0    0    0
      12        1        3  0.03982500    3.34838    1.98335    3.38681    0    0    0
      13        1        1  0.11882500    4.71054    4.12322    3.99881    0    0    0
      14        1        3  0.03382500    4.86377    5.20386    3.93855    0    0    0
      15        1        3  0.03382500    5.63171    3.65929    4.36449    0    0    0
      16        1        3  0.03382500    3.88746    3.92642    4.69360    0    0    0
      17        2        1  0.11882500    3.53413    9.57486   10.83112    0    0    0
      18        2        2 -0.42547500    2.40551    8.73851   10.60752    0    0    0
      19        2        3  0.03382500    3.31342   10.56576   10.42685    0    0    0
      20        2        3  0.03382500    4.41225    9.17492   10.31436    0    0    0
      21        2        3  0.03382500    3.73696    9.67081   11.90149    0    0    0
      22        2        1  0.12552500    2.61133    7.43137   11.14504    0    0    0
      23        2        1  0.12552500    1.38995    6.56751   10.85374    0    0    0
      24        2        3  0.03982500    2.77371    7.49373   12.22763    0    0    0
      25        2        3  0.03982500    3.50287    6.97597   10.69764    0    0    0
      26        2        2 -0.42547500    1.58834    5.26558   11.40447    0    0    0
      27        2        3  0.03982500    1.23469    6.49710    9.77045    0    0    0
      28        2        3  0.03982500    0.49552    7.02855   11.28958    0    0    0
      29        2        1  0.11882500    0.47052    4.42250   11.15934    0    0    0
      30        2        3  0.03382500    0.67170    3.44501   11.60537    0    0    0
      31        2        3  0.03382500    0.31777    4.29130   10.08372    0    0    0
      32        2        3  0.03382500   -0.43191    4.83675   11.62077    0    0    0
      33        3        1  0.11882500   -0.46684    0.40739   13.55130    0    0    0
      34        3        2 -0.42547500    0.45064    1.12908   12.73852    0    0    0
      35        3        3  0.03382500   -0.47983    0.86395   14.54398    0    0    0
      36        3        3  0.03382500   -0.14829   -0.63506   13.65091    0    0    0
      37        3        3  0.03382500   -1.47521    0.45562   13.13071    0    0    0
      38        3        1  0.12552500    0.49220    0.60643   11.40998    0    0    0
      39        3        1  0.12552500    1.50889    1.39178   10.58995    0    0    0
      40        3        3  0.03982500   -0.49876    0.68318   10.94698    0    0    0
      41        3        3  0.03982500    0.77180   -0.45366   11.43060    0    0    0
      42        3        2 -0.42547500    1.53953    0.88024    9.25763    0    0    0
      43        3        3  0.03982500    2.50156    1.30564   11.04795    0    0    0
      44        3        3  0.03982500    1.23754    2.45422   10.57934    0    0    0
      45        3        1  0.11882500    2.47448    1.58562    8.45223    0    0    0
      46        3        3  0.03382500    2.45297    1.15951    7.44581    0    0    0
      47        3        3  0.03382500    3.48598    1.47841    8.85581    0    0    0
      48        3        3  0.03382500    2.20431    2.64476    8.38780    0    0    0
      49        4        1  0.11882500    8.50236    3.33548    7.94417    0    0    0
      50        4        2 -0.42547500    9.89798    3.54670    8.11986    0    0    0
      51        4        3  0.03382500    8.28663    2.28220    8.13937    0    0    0
      52        4        3  0.03382500    8.20922    3.56676    6.91525    0    0    0
      53        4        3  0.03382500    7.92846    3.94628    8.64674    0    0    0
      54        4        1  0.12552500   10.24734    4.91624    7.91439    0    0    0
      55        4        1  0.12552500   11.75268    5.08424    8.08357    0    0    0
      56        4        3  0.03982500    9.71848    5.54930    8.63674    0    0    0
      57        4        3  0.03982500    9.94949    5.23429    6.90815    0    0    0
      58        4        2 -0.42547500   12.10053    6.45564    7.89396    0    0    0
      59        4        3  0.03982500   12.28052    4.45878    7.35367    0    0    0
      60        4        3  0.03982500   12.05374    4.75430    9.08508    0    0    0
      61        4        1  0.11882500   13.49869    6.66213    8.04520    0    0    0
      62        4        3  0.03382500   13.70821    7.72466    7.89672    0    0    0
      63        4        3  0.03382500   14.05419    6.08831    7.29711    0    0    0
      64        4        3  0.03382500   13.82202    6.38093    9.05282    0    0    0
      65        5        4 -0.10539700    4.46488    3.37064   13.93059    0    0    0
      66        5        1 -0.13809700    4.88183    3.81123   15.66562    0    0    0
      67        5        5 -0.06639800    4.47306    5.09589   15.95821    0    0    0
      68        5        5 -0.06639800    6.24850    3.69724   15.83333    0    0    0
      69        5        1  0.17619600    4.21547    2.87939   16.67632    0    0    0
      70        5        5 -0.14149600    4.60113    1.57517   16.40714    0    0    0
      71        5        6  0.16419600    3.11174    2.98370   16.58178    0    0    0
      72        5        2 -0.04689900    4.67326    3.27975   17.95520    0    0    0
      73        5        1  0.20179500    4.03743    2.58958   19.01117    0    0    0
      74        5        5 -0.12319700    4.29022    1.22816   18.93572    0    0    0
      75        5        5 -0.12319700    2.66970    2.82219   18.99375    0    0    0
      76        5        1  0.04799900    4.62388    3.13039   20.32169    0    0    0
      77        5        5 -0.10699700    4.36195    4.48534   20.41774    0    0    0
      78        5        5 -0.10699700    5.99667    2.94644   20.31966    0    0    0
      79        5        7  1.08897300    3.94061    2.30087   21.79495    0    0    0
      80        5        8 -0.61098500    3.93572    3.27330   23.28503    0    0    0
      81        5        9  0.97637600    4.32210    2.28910   24.70868    0    0    0
      82        5        1  0.32349200    6.04830    1.76665   24.95484    0    0    0
      83        5        5 -0.15109600    6.38853    1.90169   26.28772    0    0    0
      84        5        5 -0.15109600    6.19557    0.44711   24.57516    0    0    0
      85        5        5 -0.15109600    6.88109    2.56009   24.18962    0    0    0
      86        5       10 -0.52828700    3.81853    3.14133   25.88218    0    0    0
      87        5       10 -0.52828700    3.30192    1.13974   24.71152    0    0    0
      88        5       10 -0.51948700    4.67640    0.99053   22.12127    0    0    0
      89        5       10 -0.51948700    2.48723    1.83303   21.62878    0    0    0
      90        5        4 -0.10539700    5.90445    7.35652   14.76677    0    0    0
      91        5        1 -0.13809700    7.12248    7.26480   16.13541    0    0    0
      92        5        5 -0.06639800    8.23427    8.02118   15.81086    0    0    0
      93        5        5 -0.06639800    7.50849    5.96010   16.37714    0    0    0
      94        5        1  0.17619600    6.47300    7.81467   17.40814    0    0    0
      95        5        5 -0.14149600    5.33829    7.06151   17.68017    0    0    0
      96        5        6  0.16419600    6.18497    8.87271   17.21453    0    0    0
      97        5        2 -0.04689900    7.39937    7.73996   18.47727    0    0    0
      98        5        1  0.20179500    6.81067    8.14685   19.70269    0    0    0
      99        5        5 -0.12319700    5.88445    7.20377   20.12600    0    0    0
     100        5        5 -0.12319700    6.20050    9.38833   19.57918    0    0    0
     101        5        1  0.04799900    7.90966    8.25099   20.76384    0    0    0
     102        5        5 -0.10699700    8.85136    9.18187   20.36245    0    0    0
     103        5        5 -0.10699700    8.53295    7.02424   20.90664    0    0    0
     104        5        7  1.08897300    7.23595    8.76493   22.38580    0    0    0
     105        5        8 -0.61098500    7.69811   10.38379   22.95097    0    0    0
     106        5        9  0.97637600    7.21174   10.62001   24.64034    0    0    0
     107        5        1  0.32349200    8.09912    9.71553   25.94616    0    0    0
     108        5        5 -0.15109600    8.26662   10.53417   27.04605    0    0    0
     109        5        5 -0.15109600    7.37594    8.59696   26.31332    0    0    0
     110        5        5 -0.15109600    9.33872    9.32745   25.47595    0    0    0
     111        5       10 -0.52828700    7.33463   12.13756   24.83795    0    0    0
     112        5       10 -0.52828700    5.68637   10.44035   24.67362    0    0    0
     113        5       10 -0.51948700    7.64095    7.80134   23.51146    0    0    0
     114        5       10 -0.51948700    5.70086    8.73089   22.45789    0    0    0
     115        5        4 -0.10539700    6.65657    7.76041   10.90452    0    0    0
     116        5        1 -0.13809700    5.77766    8.70860    9.59950    0    0    0
     117        5        5 -0.06639800    6.46591    9.89354    9.41524    0    0    0
     118        5        5 -0.06639800    4.48914    9.02739    9.99501    0    0    0
     119        5        1  0.17619600    5.75693    7.92935    8.28222    0    0    0
     120        5        5 -0.14149600    5.01235    6.77507    8.43076    0    0    0
     121        5        6  0.16419600    6.81600    7.66328    8.05177    0    0    0
     122        5        2 -0.04689900    5.17475    8.72874    7.26725    0    0    0
     123        5        1  0.20179500    5.64198    8.33331    5.98772    0    0    0
     124        5        5 -0.12319700    5.45654    6.97040    5.79089    0    0    0
     125        5        5 -0.12319700    6.98745    8.65104    5.86009    0    0    0
     126        5        1  0.04799900    4.85578    9.08976    4.91131    0    0    0
     127        5        5 -0.10699700    5.03011   10.45035    5.08864    0    0    0
     128        5        5 -0.10699700    3.50809    8.79521    5.02508    0    0    0
     129        5        7  1.08897300    5.42158    8.63996    3.22863    0    0    0
     130        5        8 -0.61098500    5.91025    9.95594    2.14475    0    0    0
     131        5        9  0.97637600    4.54210   10.46899    1.14308    0    0    0
     132        5        1  0.32349200    2.94915   10.85747    1.92743    0    0    0
     133        5        5 -0.15109600    2.23358   11.71458    1.11441    0    0    0
     134        5        5 -0.15109600    2.22540    9.69625    2.11740    0    0    0
     135        5        5 -0.15109600    3.16955   11.46873    3.14625    0    0    0
     136        5       10 -0.52828700    5.09141   11.67491    0.36812    0    0    0
     137        5       10 -0.52828700    4.44186    9.41816    0.02549    0    0    0
     138        5       10 -0.51948700    4.42039    7.77791    2.44249    0    0    0
     139        5       10 -0.51948700    6.65159    7.71893    3.24437    0    0    0
     140        5        4 -0.10539700    5.49633    4.27617   10.00232    0    0    0
     141        5        1 -0.13809700    4.83208    2.59110   10.25812    0    0    0
     142        5        5 -0.06639800    3.66114    2.65641   10.99057    0    0    0
     143        5        5 -0.06639800    5.74963    1.78587   10.90922    0    0    0
     144        5        1  0.17619600    4.53179    1.98464    8.88433    0    0    0
     145        5        5 -0.14149600    5.73820    1.82871    8.20832    0    0    0
     146        5        6  0.16419600    4.07895    0.97888    9.01790    0    0    0
     147        5        2 -0.04689900    3.60248    2.82565    8.20649    0    0    0
     148        5        1  0.20179500    3.83431    2.91085    6.81240    0    0    0
     149        5        5 -0.12319700    3.84651    1.64599    6.24043    0    0    0
     150        5        5 -0.12319700    5.03550    3.56237    6.56557    0    0    0
     151        5        1  0.04799900    2.70491    3.73340    6.17977    0    0    0
     152        5        5 -0.10699700    2.68883    4.99852    6.73967    0    0    0
     153        5        5 -0.10699700    1.49031    3.12006    6.43041    0    0    0
     154        5        7  1.08897300    2.91386    3.89966    4.37176    0    0    0
     155        5        8 -0.61098500    2.11546    5.29913    3.62443    0    0    0
     156        5        9  0.97637600    1.99083    5.08792    1.86713    0    0    0
     157        5        1  0.32349200    0.73843    3.93934    1.21897    0    0    0
     158        5        5 -0.15109600    0.11831    4.49871    0.11835    0    0    0
     159        5        5 -0.15109600    1.33934    2.75101    0.85304    0    0    0
     160        5        5 -0.15109600   -0.20702    3.69291    2.19593    0    0    0
     161        5       10 -0.52828700    1.76409    6.51480    1.34691    0    0    0
     162        5       10 -0.52828700    3.41844    4.81194    1.36781    0    0    0
     163        5       10 -0.51948700    2.40609    2.66564    3.60849    0    0    0
     164        5       10 -0.51948700    4.38105    3.99055    3.92578    0    0    0
     165        5        1  0.10869700    4.30950    5.03127   13.11237    0    0    0
     166        5        1  0.10869700    6.34504    4.61699   11.59665    0    0    0
     167        5        1  0.10869700    6.60936    6.07324   13.64963    0    0    0
     168        5        1 -0.21369500    5.61886    5.65644   12.51498    0    0    0
     169        5        1  0.10869700    5.21654    6.92837   11.68824    0    0    0
     170        5        3  0.07529800    3.58959    4.86449   12.28522    0    0    0
     171        5        3  0.07529800    3.77651    5.74398   13.77373    0    0    0
     172        5        3  0.07529800    7.33936    5.01068   11.29846    0    0    0
     173        5        3  0.07529800    6.58038    3.68434   12.14608    0    0    0
     174        5        3  0.07529800    4.49584    6.63199   10.90093    0    0    0
     175        5        3  0.07529800    4.69742    7.66528   12.33507    0    0    0
     176        5        3  0.07529800    7.53941    6.49107   13.21158    0    0    0
     177        5        3  0.07529800    6.89328    5.17052   14.20761    0    0    0
     178        6       11  1.00000000   25.07618   19.65182    5.06117    0    0    0
     179        7       11  1.00000000   29.34796  -10.02699   -1.56814    0    0    0
     180        8       11  1.00000000  -10.56641    9.93101   10.69836    0    0    0
     181        9       11  1.00000000    8.45856   -1.32233   17.62474    0    0    0
     182       10        1  0.11882500    3.29993   -0.12551   15.59664    0    0    0
     183       10        2 -0.42547500    3.59383    0.35968   16.90103    0    0    0
     184       10        3  0.03382500    3.10020   -1.19762   15.66535    0    0    0
     185       10        3  0.03382500    4.15587    0.02800   14.93190    0    0    0
     186       10        3  0.03382500    2.41336    0.37036   15.19145    0    0    0
     187       10        1  0.12552500    3.83129    1.76802   16.89156    0    0    0
     188       10        1  0.12552500    4.17061    2.23242   18.30297    0    0    0
     189       10        3  0.03982500    2.94012    2.29489   16.53033    0    0    0
     190       10        3  0.03982500    4.65969    2.00599   16.21367    0    0    0
     191       10        2 -0.42547500    4.39256    3.64252   18.29716    0    0    0
     192       10        3  0.03982500    5.06812    1.71269   18.65923    0    0    0
     193       10        3  0.03982500    3.34838    1.98335   18.98446    0    0    0
     194       10        1  0.11882500    4.71054    4.12322   19.59646    0    0    0
     195       10        3  0.03382500    4.86377    5.20386   19.53620    0    0    0
     196       10        3  0.03382500    5.63171    3.65929   19.96214    0    0    0
     197       10        3  0.03382500    3.88746    3.92642   20.29125    0    0    0
     198       11        1  0.11882500    3.53413    9.57486   26.42877    0    0    0
     199       11        2 -0.42547500    2.40551    8.73851   26.20517    0    0    0
     200       11        3  0.03382500    3.31342   10.56576   26.02450    0    0    0
     201       11        3  0.03382500    4.41225    9.17492   25.91201    0    0    0
     202       11        3  0.03382500    3.73696    9.67081   27.49914    0    0    0
     203       11        1  0.12552500    2.61133    7.43137   26.74269    0    0    0
     204       11        1  0.12552500    1.38995    6.56751   26.45139    0    0    0
     205       11        3  0.03982500    2.77371    7.49373   27.82528    0    0    0
     206       11        3  0.03982500    3.50287    6.97597   26.29529    0    0    0
     207       11        2 -0.42547500    1.58834    5.26558   27.00212    0    0    0
     208       11        3  0.03982500    1.23469    6.49710   25.36810    0    0    0
     209       11        3  0.03982500    0.49552    7.02855   26.88723    0    0    0
     210       11        1  0.11882500    0.47052    4.42250   26.75699    0    0    0
     211       11        3  0.03382500    0.67170    3.44501   27.20302    0    0    0
     212       11        3  0.03382500    0.31777    4.29130   25.68137    0    0    0
     213       11        3  0.03382500   -0.43191    4.83675   27.21842    0    0    0
     214       12        1  0.11882500   -0.46684    0.40739   29.14895    0    0    0
     215       12        2 -0.42547500    0.45064    1.12908   28.33617    0    0    0
     216       12        3  0.03382500   -0.47983    0.86395   30.14163    0    0    0
     217       12        3  0.03382500   -0.14829   -0.63506   29.24856    0    0    0
     218       12        3  0.03382500   -1.47521    0.45562   28.72836    0    0    0
     219       12        1  0.12552500    0.49220    0.60643   27.00763    0    0    0
     220       12        1  0.12552500    1.50889    1.39178   26.18760    0    0    0
     221       12        3  0.03982500   -0.49876    0.68318   26.54463    0    0    0
     222       12        3  0.03982500    0.77180   -0.45366   27.02825    0    0    0
     223       12        2 -0.42547500    1.53953    0.88024   24.85528    0    0    0
     224       12        3  0.03982500    2.50156    1.30564   26.64560    0    0    0
     225       12        3  0.03982500    1.23754    2.45422   26.17699    0    0    0
     226       12        1  0.11882500    2.47448    1.58562   24.04988    0    0    0
     227       12        3  0.03382500    2.45297    1.15951   23.04346    0    0    0
     228       12        3  0.03382500    3.48598    1.47841   24.45346    0    0    0
     229       12        3  0.03382500    2.20431    2.64476   23.98545    0    0    0
     230       13        1  0.11882500    8.50236    3.33548   23.54182    0    0    0
     231       13        2 -0.42547500    9.89798    3.54670   23.71751    0    0    0
     232       13        3  0.03382500    8.28663    2.28220   23.73702    0    0    0
     233       13        3  0.03382500    8.20922    3.56676   22.51290    0    0    0
     234       13        3  0.03382500    7.92846    3.94628   24.24439    0    0    0
     235       13        1  0.12552500   10.24734    4.91624   23.51204    0    0    0
     236       13        1  0.12552500   11.75268    5.08424   23.68122    0    0    0
     237       13        3  0.03982500    9.71848    5.54930   24.23439    0    0    0
     238       13        3  0.03982500    9.94949    5.23429   22.50580    0    0    0
     239       13        2 -0.42547500   12.10053    6.45564   23.49161    0    0    0
     240       13        3  0.03982500   12.28052    4.45878   22.95132    0    0    0
     241       13        3  0.03982500   12.05374    4.75430   24.68273    0    0    0
     242       13        1  0.11882500   13.49869    6.66213   23.64285    0    0    0
     243       13        3  0.03382500   13.70821    7.72466   23.49437    0    0    0
     244       13        3  0.03382500   14.05419    6.08831   22.89476    0    0    0
     245       13        3  0.03382500   13.82202    6.38093   24.65047    0    0    0
     246       14        4 -0.10539700    4.46488    3.37064   29.52824    0    0    0
     247       14        1 -0.13809700    4.88183    3.81123   31.26327    0    0    0
     248       14        5 -0.06639800    4.47306    5.09589   31.55586    0    0    0
     249       14        5 -0.06639800    6.24850    3.69724   31.43098    0    0    0
     250       14        1  0.17619600    4.21547    2.87939   32.27397    0    0    0
     251       14        5 -0.14149600    4.60113    1.57517   32.00479    0    0    0
     252       14        6  0.16419600    3.11174    2.98370   32.17943    0    0    0
     253       14        2 -0.04689900    4.67326    3.27975   33.55285    0    0    0
     254       14        1  0.20179500    4.03743    2.58958   34.60882    0    0    0
     255       14        5 -0.12319700    4.29022    1.22816   34.53337    0    0    0
     256       14        5 -0.12319700    2.66970    2.82219   34.59140    0    0    0
     257       14        1  0.04799900    4.62388    3.13039   35.91934    0    0    0
     258       14        5 -0.10699700    4.36195    4.48534   36.01539    0    0    0
     259       14        5 -0.10699700    5.99667    2.94644   35.91731    0    0    0
     260       14        7  1.08897300    3.94061    2.30087   37.39260    0    0    0
     261       14        8 -0.61098500    3.93572    3.27330   38.88268    0    0    0
     262       14        9  0.97637600    4.32210    2.28910   40.30633    0    0    0
     263       14        1  0.32349200    6.04830    1.76665   40.55249    0    0    0
     264       14        5 -0.15109600    6.38853    1.90169   41.88537    0    0    0
     265       14        5 -0.15109600    6.19557    0.44711   40.17281    0    0    0
     266       14        5 -0.15109600    6.88109    2.56009   39.78727    0    0    0
     267       14       10 -0.52828700    3.81853    3.14133   41.47983    0    0    0
     268       14       10 -0.52828700    3.30192    1.13974   40.30917    0    0    0
     269       14       10 -0.51948700    4.67640    0.99053   37.71892    0    0    0
     270       14       10 -0.51948700    2.48723    1.83303   37.22643    0    0    0
     271       14        4 -0.10539700    5.90445    7.35652   30.36442    0    0    0
     272       14        1 -0.13809700    7.12248    7.26480   31.73306    0    0    0
     273       14        5 -0.06639800    8.23427    8.02118   31.40851    0    0    0
     274       14        5 -0.06639800    7.50849    5.96010   31.97479    0    0    0
     275       14        1  0.17619600    6.47300    7.81467   33.00579    0    0    0
     276       14        5 -0.14149600    5.33829    7.06151   33.27782    0    0    0
     277       14        6  0.16419600    6.18497    8.87271   32.81218    0    0    0
     278       14        2 -0.04689900    7.39937    7.73996   34.07492    0    0    0
     279       14        1  0.20179500    6.81067    8.14685   35.30034    0    0    0
     280       14        5 -0.12319700    5.88445    7.20377   35.72365    0    0    0
     281       14        5 -0.12319700    6.20050    9.38833   35.17683    0    0    0
     282       14        1  0.04799900    7.90966    8.25099   36.36149    0    0    0
     283       14        5 -0.10699700    8.85136    9.18187   35.96010    0    0    0
     284       14        5 -0.10699700    8.53295    7.02424   36.50429    0    0    0
     285       14        7  1.08897300    7.23595    8.76493   37.98345    0    0    0
     286       14        8 -0.61098500    7.69811   10.38379   38.54862    0    0    0
     287       14        9  0.97637600    7.21174   10.62001   40.23799    0    0    0
     288       14        1  0.32349200    8.09912    9.71553   41.54381    0    0    0
     289       14        5 -0.15109600    8.26662   10.53417   42.64370    0    0    0
     290       14        5 -0.15109600    7.37594    8.59696   41.91097    0    0    0
     291       14        5 -0.15109600    9.33872    9.32745   41.07360    0    0    0
     292       14       10 -0.52828700    7.33463   12.13756   40.43560    0    0    0
     293       14       10 -0.52828700    5.68637   10.44035   40.27127    0    0    0
     294       14       10 -0.51948700    7.64095    7.80134   39.10911    0    0    0
     295       14       10 -0.51948700    5.70086    8.73089   38.05554    0    0    0
     296       14        4 -0.10539700    6.65657    7.76041   26.50217    0    0    0
     297       14        1 -0.13809700    5.77766    8.70860   25.19715    0    0    0
     298       14        5 -0.06639800    6.46591    9.89354   25.01289    0    0    0
     299       14        5 -0.06639800    4.48914    9.02739   25.59266    0    0    0
     300       14        1  0.17619600    5.75693    7.92935   23.87987    0    0    0
     301       14        5 -0.14149600    5.01235    6.77507   24.02841    0    0    0
     302       14        6  0.16419600    6.81600    7.66328   23.64942    0    0    0
     303       14        2 -0.04689900    5.17475    8.72874   22.86490    0    0    0